DYX_smiles_GMX.gro created by acpype (v: 2022.7.21) on Tue May 12 23:46:03 2026
 57
    1  UNL    C    1   0.074  -0.027   0.014
    1  UNL    O    2  -0.018   0.054  -0.063
    1  UNL   C1    3   0.004   0.190  -0.050
    1  UNL   C2    4  -0.090   0.293  -0.096
    1  UNL   C3    5  -0.055   0.433  -0.135
    1  UNL   C4    6   0.077   0.470  -0.124
    1  UNL   C5    7   0.154   0.361  -0.053
    1  UNL   C6    8   0.131   0.228  -0.029
    1  UNL    N    9   0.135   0.610  -0.201
    1  UNL   N1   10   0.091   0.729  -0.142
    1  UNL   C7   11   0.181   0.824  -0.170
    1  UNL   C8   12   0.280   0.789  -0.263
    1  UNL   C9   13   0.262   0.654  -0.289
    1  UNL   N2   14   0.355   0.590  -0.378
    1  UNL  C10   15   0.369   0.449  -0.402
    1  UNL   O1   16   0.451   0.408  -0.477
    1  UNL  C11   17   0.285   0.371  -0.306
    1  UNL  C12   18   0.139   0.394  -0.386
    1  UNL  C13   19   0.058   0.273  -0.349
    1  UNL  C14   20   0.143   0.151  -0.339
    1  UNL  C15   21   0.286   0.212  -0.344
    1  UNL  C16   22   0.367   0.436  -0.158
    1  UNL  C17   23   0.322   0.542  -0.048
    1  UNL  C18   24   0.357   0.559   0.085
    1  UNL  C19   25   0.459   0.480   0.122
    1  UNL  C20   26   0.519   0.391   0.026
    1  UNL  C21   27   0.476   0.367  -0.110
    1  UNL   CL   28   0.500   0.485   0.288
    1  UNL  C22   29   0.368   0.902  -0.308
    1  UNL    S   30   0.333   1.036  -0.189
    1  UNL   O2   31   0.434   1.032  -0.085
    1  UNL   O3   32   0.304   1.158  -0.261
    1  UNL  C23   33   0.178   0.967  -0.125
    1  UNL    H   34   0.048  -0.132   0.003
    1  UNL   H1   35   0.065   0.003   0.119
    1  UNL   H2   36   0.181  -0.023  -0.016
    1  UNL   H3   37  -0.184   0.256  -0.135
    1  UNL   H4   38  -0.117   0.489  -0.205
    1  UNL   H5   39   0.252   0.359  -0.010
    1  UNL   H6   40   0.221   0.163  -0.021
    1  UNL   H7   41   0.433   0.642  -0.419
    1  UNL   H8   42   0.086   0.487  -0.369
    1  UNL   H9   43   0.144   0.392  -0.495
    1  UNL  H10   44  -0.050   0.268  -0.371
    1  UNL  H11   45   0.056   0.286  -0.247
    1  UNL  H12   46   0.105   0.077  -0.409
    1  UNL  H13   47   0.138   0.096  -0.244
    1  UNL  H14   48   0.310   0.196  -0.450
    1  UNL  H15   49   0.352   0.154  -0.281
    1  UNL  H16   50   0.220   0.578  -0.029
    1  UNL  H17   51   0.286   0.608   0.155
    1  UNL  H18   52   0.601   0.333   0.064
    1  UNL  H19   53   0.519   0.285  -0.167
    1  UNL  H20   54   0.334   0.940  -0.405
    1  UNL  H21   55   0.476   0.885  -0.309
    1  UNL  H22   56   0.175   0.983  -0.017
    1  UNL  H23   57   0.097   1.018  -0.177
   15.71200    25.81000    15.66600
