*****
    57
   0.7410000  -0.2710000   0.1400000  -0.1840000   0.5430000  -0.6340000
   0.0350000   1.8990000  -0.5020000  -0.9030000   2.9290000  -0.9570000
  -0.5460000   4.3250000  -1.3530000   0.7720000   4.6950000  -1.2360000
   1.5400000   3.6050000  -0.5320000   1.3060000   2.2750000  -0.2860000
   1.3460000   6.1040000  -2.0130000   0.9100000   7.2920000  -1.4160000
   1.8100000   8.2390000  -1.6980000   2.7950000   7.8920000  -2.6310000
   2.6190000   6.5410000  -2.8900000   3.5540000   5.9030000  -3.7780000
   3.6900000   4.4890000  -4.0240000   4.5130000   4.0750000  -4.7680000
   2.8450000   3.7090000  -3.0650000   1.3920000   3.9380000  -3.8570000
   0.5760000   2.7250000  -3.4880000   1.4290000   1.5110000  -3.3890000
   2.8570000   2.1160000  -3.4440000   3.6670000   4.3610000  -1.5750000
   3.2170000   5.4170000  -0.4820000   3.5660000   5.5880000   0.8510000
   4.5850000   4.7960000   1.2190000   5.1860000   3.9120000   0.2640000
   4.7550000   3.6660000  -1.0990000   4.9970000   4.8510000   2.8790000
   3.6810000   9.0230000  -3.0830000   3.3270000  10.3590000  -1.8910000
   4.3370000  10.3200000  -0.8500000   3.0430000  11.5830000  -2.6140000
   1.7770000   9.6660000  -1.2510000   0.4760000  -1.3220000   0.0260000
   0.6540000   0.0310000   1.1870000   1.8070000  -0.2270000  -0.1560000
  -1.8430000   2.5600000  -1.3530000  -1.1690000   4.8930000  -2.0460000
   2.5240000   3.5850000  -0.0980000   2.2050000   1.6340000  -0.2140000
   4.3350000   6.4160000  -4.1880000   0.8590000   4.8700000  -3.6890000
   1.4380000   3.9200000  -4.9540000  -0.4980000   2.6840000  -3.7080000
   0.5590000   2.8550000  -2.4670000   1.0460000   0.7690000  -4.0950000
   1.3770000   0.9610000  -2.4450000   3.1030000   1.9630000  -4.5020000
   3.5210000   1.5380000  -2.8100000   2.2020000   5.7820000  -0.2870000
   2.8550000   6.0790000   1.5480000   6.0130000   3.3250000   0.6370000
   5.1860000   2.8500000  -1.6690000   3.3400000   9.3960000  -4.0550000
   4.7610000   8.8520000  -3.0890000   1.7470000   9.8280000  -0.1730000
   0.9680000  10.1800000  -1.7700000
