[ atomtypes ]
; name  at.num  mass  charge ptype sigma epsilon
cc             6  12.010000  0.00000000  A     0.33152123      0.4133792
ca             6  12.010000  0.00000000  A     0.33152123      0.4133792
c3             6  12.010000  0.00000000  A     0.33977095      0.4510352
c              6  12.010000  0.00000000  A     0.33152123      0.4133792
cd             6  12.010000  0.00000000  A     0.33152123      0.4133792
c5             6  12.010000  0.00000000  A     0.33977095      0.4510352
ns             7  14.010000  0.00000000  A     0.32699547      0.4912016
nc             7  14.010000  0.00000000  A     0.33841679      0.3937144
na             7  14.010000  0.00000000  A     0.32058099      0.8543728
o              8  16.000000  0.00000000  A     0.30481209      0.6121192
ss            16  32.060000  0.00000000  A     0.35324134      1.1815616
ha             1   1.008000  0.00000000  A     0.26254785      0.0673624
hc             1   1.008000  0.00000000  A      0.2600177      0.0870272
h1             1   1.008000  0.00000000  A     0.24219973      0.0870272
hn             1   1.008000  0.00000000  A     0.11064962        0.04184
