%VERSION  VERSION_STAMP = V0001.000  DATE = 05/12/26  23:48:59                  
%FLAG TITLE                                                                     
%FORMAT(20a4)                                                                   
*****                                                                           
%FLAG POINTERS                                                                  
%FORMAT(10I8)                                                                   
      57      13      24      37      54      56     101      94       0       0
     327       1      37      56      94      24      40      31      17       0
       0       0       0       0       0       0       0       0      57       0
       0
%FLAG ATOM_NAME                                                                 
%FORMAT(20a4)                                                                   
C   O   C1  C2  C3  C4  C5  C6  N   N1  C7  C8  C9  N2  C10 O1  C11 C12 C13 C14 
C15 C16 C17 C18 C19 C20 C21 Cl  C22 S   O2  O3  C23 H   H1  H2  H3  H4  H5  H6  
H7  H8  H9  H10 H11 H12 H13 H14 H15 H16 H17 H18 H19 H20 H21 H22 H23 
%FLAG CHARGE                                                                    
%FORMAT(5E16.8)                                                                 
  2.01720861E+00 -5.82931377E+00  2.55294423E+00 -3.16156905E+00 -1.50333975E+00
 -7.32536460E-01 -1.50333975E+00 -3.16156905E+00  2.33792109E+00 -7.83194454E+00
  5.38651188E+00 -4.20206238E+00  1.17169389E+00 -8.34763563E+00  1.23747639E+01
 -1.07529792E+01 -9.42092910E-01 -1.36485027E+00 -1.44685062E+00 -1.44685062E+00
 -1.36485027E+00 -1.40858379E+00 -2.17756485E+00 -2.27778750E+00  2.62401120E-01
 -2.27778750E+00 -2.17756485E+00 -1.55618442E+00 -3.63170439E+00  2.32516548E+01
 -1.16768498E+01 -1.16768498E+01 -5.46486777E+00  8.93494036E-01  8.93494036E-01
  8.93494036E-01  2.80623420E+00  2.70601155E+00  2.70601155E+00  2.80623420E+00
  6.00424785E+00  1.11976034E+00  1.11976034E+00  8.46425835E-01  8.46425835E-01
  8.46425835E-01  8.46425835E-01  1.11976034E+00  1.11976034E+00  2.73334500E+00
  2.82445650E+00  2.82445650E+00  2.73334500E+00  2.47276611E+00  2.47276611E+00
  2.46365496E+00  2.46365496E+00
%FLAG ATOMIC_NUMBER                                                             
%FORMAT(10I8)                                                                   
       6       8       6       6       6       6       6       6       7       7
       6       6       6       7       6       8       6       6       6       6
       6       6       6       6       6       6       6      17       6      16
       8       8       6       1       1       1       1       1       1       1
       1       1       1       1       1       1       1       1       1       1
       1       1       1       1       1       1       1
%FLAG MASS                                                                      
%FORMAT(5E16.8)                                                                 
  1.20100000E+01  1.60000000E+01  1.20100000E+01  1.20100000E+01  1.20100000E+01
  1.20100000E+01  1.20100000E+01  1.20100000E+01  1.40100000E+01  1.40100000E+01
  1.20100000E+01  1.20100000E+01  1.20100000E+01  1.40100000E+01  1.20100000E+01
  1.60000000E+01  1.20100000E+01  1.20100000E+01  1.20100000E+01  1.20100000E+01
  1.20100000E+01  1.20100000E+01  1.20100000E+01  1.20100000E+01  1.20100000E+01
  1.20100000E+01  1.20100000E+01  3.54500000E+01  1.20100000E+01  3.20600000E+01
  1.60000000E+01  1.60000000E+01  1.20100000E+01  1.00800000E+00  1.00800000E+00
  1.00800000E+00  1.00800000E+00  1.00800000E+00  1.00800000E+00  1.00800000E+00
  1.00800000E+00  1.00800000E+00  1.00800000E+00  1.00800000E+00  1.00800000E+00
  1.00800000E+00  1.00800000E+00  1.00800000E+00  1.00800000E+00  1.00800000E+00
  1.00800000E+00  1.00800000E+00  1.00800000E+00  1.00800000E+00  1.00800000E+00
  1.00800000E+00  1.00800000E+00
%FLAG ATOM_TYPE_INDEX                                                           
%FORMAT(10I8)                                                                   
       1       2       3       3       3       3       3       3       4       5
       3       3       3       6       3       7       1       1       1       1
       1       3       3       3       3       3       3       8       1       9
       7       7       1      10      10      10      11      11      11      11
      12      13      13      13      13      13      13      13      13      11
      11      11      11      10      10      10      10
%FLAG NUMBER_EXCLUDED_ATOMS                                                     
%FORMAT(10I8)                                                                   
       7      10      12       8       9      12       7       4      11       9
      12      13      10       8      14       5      20      14      11      10
      11      13       8       7       7       5       4       2       8       7
       6       5       4       2       1       1       1       1       1       1
       1       3       2       3       2       3       2       1       1       1
       1       1       1       1       1       1       1
%FLAG NONBONDED_PARM_INDEX                                                      
%FORMAT(10I8)                                                                   
       1       2       4       7      11      16      22      29      37      46
      56      67      79       2       3       5       8      12      17      23
      30      38      47      57      68      80       4       5       6       9
      13      18      24      31      39      48      58      69      81       7
       8       9      10      14      19      25      32      40      49      59
      70      82      11      12      13      14      15      20      26      33
      41      50      60      71      83      16      17      18      19      20
      21      27      34      42      51      61      72      84      22      23
      24      25      26      27      28      35      43      52      62      73
      85      29      30      31      32      33      34      35      36      44
      53      63      74      86      37      38      39      40      41      42
      43      44      45      54      64      75      87      46      47      48
      49      50      51      52      53      54      55      65      76      88
      56      57      58      59      60      61      62      63      64      65
      66      77      89      67      68      69      70      71      72      73
      74      75      76      77      78      90      79      80      81      82
      83      84      85      86      87      88      89      90      91
%FLAG RESIDUE_LABEL                                                             
%FORMAT(20a4)                                                                   
UNL 
%FLAG RESIDUE_POINTER                                                           
%FORMAT(10I8)                                                                   
       1
%FLAG BOND_FORCE_CONSTANT                                                       
%FORMAT(5E16.8)                                                                 
  2.82270000E+02  3.44220000E+02  3.43340000E+02  3.54250000E+02  3.60690000E+02
  3.29320000E+02  2.90410000E+02  3.35500000E+02  4.17790000E+02  3.21490000E+02
  2.49330000E+02  3.86240000E+02  3.35390000E+02  3.36070000E+02  4.73590000E+02
  5.90600000E+02  2.29450000E+02  2.20100000E+02  2.43600000E+02  3.46430000E+02
  1.87980000E+02  1.71830000E+02  3.43780000E+02  6.14490000E+02
%FLAG BOND_EQUIL_VALUE                                                          
%FORMAT(5E16.8)                                                                 
  1.42730000E+00  1.09690000E+00  1.36880000E+00  1.39860000E+00  1.08600000E+00
  1.38580000E+00  1.35700000E+00  1.38030000E+00  1.31710000E+00  1.42790000E+00
  1.50760000E+00  1.37300000E+00  1.38040000E+00  1.37980000E+00  1.01320000E+00
  1.21900000E+00  1.53460000E+00  1.54830000E+00  1.51510000E+00  1.09540000E+00
  1.75720000E+00  1.86940000E+00  1.09720000E+00  1.46570000E+00
%FLAG ANGLE_FORCE_CONSTANT                                                      
%FORMAT(5E16.8)                                                                 
  8.82600000E+01  5.62000000E+01  7.90000000E+01  6.36700000E+01  4.49000000E+01
  6.78200000E+01  8.72100000E+01  8.04900000E+01  9.39000000E+01  7.28100000E+01
  7.18400000E+01  8.73600000E+01  6.84600000E+01  6.59500000E+01  6.45700000E+01
  5.85000000E+01  6.32000000E+01  4.40600000E+01  6.82600000E+01  6.33400000E+01
  7.80900000E+01  5.69500000E+01  8.72100000E+01  6.82800000E+01  5.73700000E+01
  6.09400000E+01  6.07200000E+01  7.53100000E+01  6.18400000E+01  4.26500000E+01
  6.04700000E+01  6.22000000E+01  6.40600000E+01  1.15620000E+02  9.33900000E+01
  4.16700000E+01  1.58500000E+02  3.56400000E+01  3.59100000E+01  3.57000000E+01
%FLAG ANGLE_EQUIL_VALUE                                                         
%FORMAT(5E16.8)                                                                 
  2.06629619E+00  1.92579712E+00  2.07886256E+00  2.09474507E+00  2.09230160E+00
  2.09980652E+00  1.99787925E+00  2.04762116E+00  1.81217614E+00  1.86313978E+00
  2.14535964E+00  1.99962458E+00  2.10661331E+00  2.11900515E+00  2.02824799E+00
  2.24641424E+00  1.97239743E+00  1.90694756E+00  2.11970329E+00  1.97850609E+00
  2.18480409E+00  2.07537190E+00  2.14762857E+00  1.86977203E+00  2.04657396E+00
  1.88251294E+00  1.93749083E+00  2.19335621E+00  1.81217614E+00  1.94028336E+00
  2.12703367E+00  1.82962944E+00  2.08357495E+00  1.92056113E+00  1.66015790E+00
  1.86785217E+00  2.09806119E+00  1.89455572E+00  1.87134283E+00  1.88722533E+00
%FLAG DIHEDRAL_FORCE_CONSTANT                                                   
%FORMAT(5E16.8)                                                                 
  1.66000000E+00  3.62500000E+00  3.83333333E-01  3.00000000E-01  6.13000000E-01
  4.80000000E+00  1.70000000E+00  4.75000000E+00  4.00000000E+00  1.65000000E+00
  0.00000000E+00  1.44444444E-01  2.50000000E+00  2.10000000E-01  1.05000000E+00
  0.00000000E+00  4.60000000E-01  4.00000000E-02  1.55555556E-01  0.00000000E+00
  2.00000000E+00  6.80000000E-01  2.00000000E-01  4.40000000E-01  5.20000000E-01
  1.30000000E-01  2.40000000E-01  0.00000000E+00  1.20000000E-01  1.10000000E+00
  1.05000000E+01
%FLAG DIHEDRAL_PERIODICITY                                                      
%FORMAT(5E16.8)                                                                 
  2.00000000E+00  2.00000000E+00  3.00000000E+00  2.00000000E+00  2.00000000E+00
  2.00000000E+00  2.00000000E+00  2.00000000E+00  2.00000000E+00  2.00000000E+00
  3.00000000E+00  3.00000000E+00  2.00000000E+00  2.00000000E+00  3.00000000E+00
  2.00000000E+00  1.00000000E+00  2.00000000E+00  3.00000000E+00  2.00000000E+00
  1.00000000E+00  1.00000000E+00  2.00000000E+00  3.00000000E+00  3.00000000E+00
  3.00000000E+00  2.00000000E+00  3.00000000E+00  3.00000000E+00  2.00000000E+00
  2.00000000E+00
%FLAG DIHEDRAL_PHASE                                                            
%FORMAT(5E16.8)                                                                 
  3.14159400E+00  3.14159400E+00  0.00000000E+00  3.14159400E+00  3.14159400E+00
  3.14159400E+00  3.14159400E+00  3.14159400E+00  3.14159400E+00  3.14159400E+00
  0.00000000E+00  0.00000000E+00  3.14159400E+00  3.14159400E+00  3.14159400E+00
  3.14159400E+00  3.14159400E+00  0.00000000E+00  0.00000000E+00  0.00000000E+00
  0.00000000E+00  0.00000000E+00  3.14159400E+00  3.14159400E+00  0.00000000E+00
  0.00000000E+00  3.14159400E+00  3.14159400E+00  0.00000000E+00  3.14159400E+00
  3.14159400E+00
%FLAG SCEE_SCALE_FACTOR                                                         
%FORMAT(5E16.8)                                                                 
  1.20000000E+00  1.20000000E+00  1.20000000E+00  1.20000000E+00  1.20000000E+00
  1.20000000E+00  1.20000000E+00  1.20000000E+00  1.20000000E+00  1.20000000E+00
  1.20000000E+00  1.20000000E+00  1.20000000E+00  1.20000000E+00  1.20000000E+00
  1.20000000E+00  1.20000000E+00  1.20000000E+00  1.20000000E+00  1.20000000E+00
  1.20000000E+00  1.20000000E+00  1.20000000E+00  1.20000000E+00  1.20000000E+00
  1.20000000E+00  1.20000000E+00  1.20000000E+00  1.20000000E+00  0.00000000E+00
  0.00000000E+00
%FLAG SCNB_SCALE_FACTOR                                                         
%FORMAT(5E16.8)                                                                 
  2.00000000E+00  2.00000000E+00  2.00000000E+00  2.00000000E+00  2.00000000E+00
  2.00000000E+00  2.00000000E+00  2.00000000E+00  2.00000000E+00  2.00000000E+00
  2.00000000E+00  2.00000000E+00  2.00000000E+00  2.00000000E+00  2.00000000E+00
  2.00000000E+00  2.00000000E+00  2.00000000E+00  2.00000000E+00  2.00000000E+00
  2.00000000E+00  2.00000000E+00  2.00000000E+00  2.00000000E+00  2.00000000E+00
  2.00000000E+00  2.00000000E+00  2.00000000E+00  2.00000000E+00  0.00000000E+00
  0.00000000E+00
%FLAG SOLTY                                                                     
%FORMAT(5E16.8)                                                                 
  0.00000000E+00  0.00000000E+00  0.00000000E+00  0.00000000E+00  0.00000000E+00
  0.00000000E+00  0.00000000E+00  0.00000000E+00  0.00000000E+00  0.00000000E+00
  0.00000000E+00  0.00000000E+00  0.00000000E+00  0.00000000E+00  0.00000000E+00
  0.00000000E+00  0.00000000E+00
%FLAG LENNARD_JONES_ACOEF                                                       
%FORMAT(5E16.8)                                                                 
  1.02073671E+06  5.42502534E+05  2.83662575E+05  8.43969952E+05  4.46121722E+05
  6.96551276E+05  9.96191545E+05  5.22690526E+05  8.20152428E+05  9.62429652E+05
  9.31115275E+05  4.94433451E+05  7.69642101E+05  9.08092643E+05  8.49322032E+05
  8.48258258E+05  4.47026838E+05  6.99381362E+05  8.22346035E+05  7.73425391E+05
  7.01825028E+05  6.30925504E+05  3.27367585E+05  5.17507491E+05  6.04208667E+05
  5.74782316E+05  5.17814271E+05  3.76435470E+05  1.80018612E+06  9.60982218E+05
  1.49062160E+06  1.76299915E+06  1.64251971E+06  1.49942414E+06  1.11993097E+06
  3.17107030E+06  2.34552991E+06  1.29636058E+06  1.96483601E+06  2.36087375E+06
  2.14413784E+06  1.98928056E+06  1.53564503E+06  4.09308863E+06  4.90327872E+06
  6.97998263E+04  3.44374471E+04  5.63013422E+04  6.42436358E+04  6.34160397E+04
  5.58085097E+04  3.86646725E+04  1.25585106E+05  1.91441225E+05  3.39005767E+03
  9.27554496E+04  4.65732396E+04  7.52549148E+04  8.65595848E+04  8.43518904E+04
  7.48403283E+04  5.27277400E+04  1.66104821E+05  2.44084252E+05  4.88692384E+03
  6.90855956E+03  2.23577481E+03  9.46795083E+02  1.71458823E+03  1.82491629E+03
  2.01475241E+03  1.65195713E+03  9.87857350E+02  4.18912581E+03  8.72013948E+03
  5.24570081E+01  9.04434904E+01  1.34728399E-01  1.00235148E+05  5.02224902E+04
  8.12662403E+04  9.33839501E+04  9.11435380E+04  8.07866982E+04  5.68021765E+04
  1.79601155E+05  2.65089806E+05  5.22955465E+03  7.41026906E+03  9.47421632E+01
  7.94617769E+03
%FLAG LENNARD_JONES_BCOEF                                                       
%FORMAT(5E16.8)                                                                 
  6.63431737E+02  4.38146883E+02  2.87011518E+02  5.90251928E+02  3.88758656E+02
  5.24668528E+02  7.68900328E+02  5.04545572E+02  6.82622272E+02  8.86629877E+02
  6.12468585E+02  4.04310927E+02  5.44830041E+02  7.09588248E+02  5.65406768E+02
  6.17825399E+02  4.06301077E+02  5.48900066E+02  7.13654906E+02  5.70234696E+02
  5.74088001E+02  5.62969425E+02  3.67361018E+02  4.98871431E+02  6.46321327E+02
  5.19385932E+02  5.21008860E+02  4.69350655E+02  1.10195051E+03  7.29357620E+02
  9.81118883E+02  1.27934796E+03  1.01742263E+03  1.02737257E+03  9.38113535E+02
  1.82923847E+03  8.73669684E+02  5.88395242E+02  7.82392141E+02  1.02830608E+03
  8.07413199E+02  8.21934352E+02  7.63007119E+02  1.44349858E+03  1.09738109E+03
  1.14981426E+02  7.31636661E+01  1.01040256E+02  1.29412081E+02  1.05935811E+02
  1.05029928E+02  9.23664132E+01  1.92900608E+02  1.65426719E+02  1.67944276E+01
  1.24325688E+02  7.98066064E+01  1.09570372E+02  1.40899023E+02  1.14599119E+02
  1.14083104E+02  1.01173582E+02  2.08087638E+02  1.75205783E+02  1.89134207E+01
  2.10929191E+01  1.71355763E+01  1.01016461E+01  1.46824710E+01  1.81620725E+01
  1.57231024E+01  1.50468782E+01  1.22938581E+01  2.93366416E+01  2.93990844E+01
  1.73959275E+00  2.14252117E+00  7.34107347E-02  1.37787728E+02  8.83545880E+01
  1.21392023E+02  1.56025608E+02  1.27000718E+02  1.26366740E+02  1.11953944E+02
  2.30684859E+02  1.94663459E+02  2.08590256E+01  2.32899892E+01  2.33785449E+00
  2.57122925E+01
%FLAG BONDS_INC_HYDROGEN                                                        
%FORMAT(10I8)                                                                   
       0      99       2       0     102       2       0     105       2       9
     108       5      12     111       5      18     114       5      21     117
       5      39     120      15      51     123      20      51     126      20
      54     129      20      54     132      20      57     135      20      57
     138      20      60     141      20      60     144      20      66     147
       5      69     150       5      75     153       5      78     156       5
      84     159      23      84     162      23      96     165      23      96
     168      23
%FLAG BONDS_WITHOUT_HYDROGEN                                                    
%FORMAT(10I8)                                                                   
       0       3       1       3       6       3       6       9       4       6
      21       4       9      12       4      12      15       4      15      18
       4      15      24       6      18      21       4      24      27       7
      24      36       8      27      30       9      30      33      10      30
      96      11      33      36      12      33      84      11      36      39
      13      39      42      14      42      45      16      42      48      17
      48      51      18      48      60      18      48      63      19      51
      54      18      54      57      18      57      60      18      63      66
       4      63      78       4      66      69       4      69      72       4
      72      75       4      72      81      21      75      78       4      84
      87      22      87      90      24      87      93      24      87      96
      22
%FLAG ANGLES_INC_HYDROGEN                                                       
%FORMAT(10I8)                                                                   
       3       0      99       2       3       0     102       2       3       0
     105       2       6       9     108       5       6      21     117       5
       9      12     111       5      12       9     108       5      15      12
     111       5      15      18     114       5      18      21     117       5
      21      18     114       5      30      96     165      18      30      96
     168      18      33      84     159      18      33      84     162      18
      36      39     120      22      42      39     120      25      48      51
     123      30      48      51     126      30      48      60     141      30
      48      60     144      30      51      54     129      30      51      54
     132      30      54      51     123      30      54      51     126      30
      54      57     135      30      54      57     138      30      57      54
     129      30      57      54     132      30      57      60     141      30
      57      60     144      30      60      57     135      30      60      57
     138      30      63      66     147       5      63      78     156       5
      66      69     150       5      69      66     147       5      72      69
     150       5      72      75     153       5      75      78     156       5
      78      75     153       5      87      84     159      36      87      84
     162      36      87      96     165      36      87      96     168      36
      99       0     102      38      99       0     105      38     102       0
     105      38     123      51     126      39     129      54     132      39
     135      57     138      39     141      60     144      39     159      84
     162      40     165      96     168      40
%FLAG ANGLES_WITHOUT_HYDROGEN                                                   
%FORMAT(10I8)                                                                   
       0       3       6       1       3       6       9       3       3       6
      21       3       6       9      12       4       6      21      18       4
       9       6      21       4       9      12      15       4      12      15
      18       4      12      15      24       6      15      18      21       4
      15      24      27       7      15      24      36       8      18      15
      24       6      24      27      30       9      24      36      33      10
      24      36      39      11      27      24      36      12      27      30
      33      13      27      30      96      14      30      33      36      15
      30      33      84      16      30      96      87      17      33      30
      96      16      33      36      39      19      33      84      87      17
      36      33      84      20      36      39      42      21      39      42
      45      23      39      42      48      24      42      48      51      26
      42      48      60      26      42      48      63      27      45      42
      48      28      48      51      54      29      48      60      57      29
      48      63      66      31      48      63      78      31      51      48
      60      29      51      48      63      32      51      54      57      29
      54      57      60      29      60      48      63      32      63      66
      69       4      63      78      75       4      66      63      78       4
      66      69      72       4      69      72      75       4      69      72
      81      33      72      75      78       4      75      72      81      33
      84      87      90      34      84      87      93      34      84      87
      96      35      90      87      93      37      90      87      96      34
      93      87      96      34
%FLAG DIHEDRALS_INC_HYDROGEN                                                    
%FORMAT(10I8)                                                                   
       3       6       9     108       2       3       6      21     117       2
      99       0       3       6       3     102       0       3       6       3
     105       0       3       6       3       6       9      12     111       2
       6      21      18     114       2       9       6      21     117       2
      12      15      18     114       2      15      12       9     108       2
      15      18      21     117       2      18      15      12     111       2
      21       6       9     108       2      24      15      12     111       2
      24      15      18     114       2      24      36      39     120      10
      27      30      96     165      11      27      30      96     168      11
      30      33      84     159      11      30      33      84     162      11
      33      30      96     165      11      33      30      96     168      11
      33      36      39     120      10      36      33      84     159      11
      36      33      84     162      11      42      48      51     123      19
      42      48      51     126      19      42      48      60     141      19
      42      48      60     144      19      45      42      39     120      21
      45      42     -39     120      13      48      42      39     120      13
      48      51      54     129      26      48      51      54     132      26
      48      60      57     135      26      48      60      57     138      26
      48      63      66     147       2      48      63      78     156       2
      51      48      60     141      26      51      48      60     144      26
      51      54      57     135      26      51      54      57     138      26
      54      57      60     141      26      54      57      60     144      26
      57      54      51     123      26      57      54      51     126      26
      60      57      54     129      26      60      57      54     132      26
      60      48      51     123      26      60      48      51     126      26
      63      48      51     123      19      63      48      51     126      19
      63      48      60     141      19      63      48      60     144      19
      63      66      69     150       2      63      78      75     153       2
      66      63      78     156       2      69      72      75     153       2
      72      69      66     147       2      72      75      78     156       2
      75      72      69     150       2      78      63      66     147       2
      81      72      69     150       2      81      72      75     153       2
      84      87      96     165      28      84      87      96     168      28
      90      87      84     159      12      90      87      84     162      12
      90      87      96     165      12      90      87      96     168      12
      93      87      84     159      12      93      87      84     162      12
      93      87      96     165      12      93      87      96     168      12
      96      87      84     159      28      96      87      84     162      28
     108       9      12     111       2     114      18      21     117       2
     123      51      54     129      29     123      51      54     132      29
     126      51      54     129      29     126      51      54     132      29
     129      54      57     135      29     129      54      57     138      29
     132      54      57     135      29     132      54      57     138      29
     135      57      60     141      29     135      57      60     144      29
     138      57      60     141      29     138      57      60     144      29
     147      66      69     150       2     153      75      78     156       2
       6      12      -9    -108      30       9      15     -12    -111      30
      15      21     -18    -114      30       6      18     -21    -117      30
      42      36     -39    -120      30      63      69     -66    -147      30
      66      72     -69    -150      30      72      78     -75    -153      30
      63      75     -78    -156      30
%FLAG DIHEDRALS_WITHOUT_HYDROGEN                                                
%FORMAT(10I8)                                                                   
       0       3       6       9       1       0       3       6      21       1
       3       6       9      12       2       3       6      21      18       2
       6       9      12      15       2       6      21     -18      15       2
       9       6      21      18       2       9      12     -15      18       2
       9      12      15      24       2      12       9       6      21       2
      12      15     -18      21       2      12      15      24      27       4
      12      15      24      36       5      15      24      27      30       6
      15      24      36      33       7      15      24      36      39       7
      18      15      24      27       4      18      15      24      36       5
      21      18      15      24       2      24      27     -30      33       8
      24      27      30      96       8      24      36     -33      30       9
      24      36      33      84       9      24      36      39      42      10
      27      24     -36      33       7      27      24      36      39       7
      27      30     -33      36       9      27      30      33      84       9
      27      30      96      87      11      30      27     -24      36       6
      30      33      36      39       9      30      33     -84      87      11
      30      96     -87      84      12      30      96      87      90      12
      30      96      87      93      12      33      30     -96      87      11
      33      36      39      42      10      33      84      87      90      12
      33      84      87      93      12      33      84     -87      96      12
      36      33      30      96       9      36      33      84      87      11
      36      39      42      45      13      36      39      42      48      14
      39      36      33      84       9      39      42      48      51      15
      39      42      48      60      15      39      42      48      63      16
      42      48      51      54      17      42      48     -51      54      18
      42      48     -51      54      11      42      48      60      57      17
      42      48     -60      57      18      42      48     -60      57      11
      42      48      63      66      20      42      48      63      78      20
      45      42      48      51      22      45      42     -48      51      23
      45      42     -48      51      24      45      42      48      60      22
      45      42     -48      60      23      45      42     -48      60      24
      45      42      48      63      16      48      51     -54      57      25
      48      60     -57      54      25      48      63      66      69       2
      48      63      78      75       2      51      48     -60      57      25
      51      48      63      66      27      51      48      63      78      27
      51      54     -57      60      25      54      51     -48      60      25
      54      51      48      63      19      57      60      48      63      19
      60      48      63      66      27      60      48      63      78      27
      63      66      69      72       2      63      78     -75      72       2
      66      63      78      75       2      66      69     -72      75       2
      66      69      72      81       2      69      66      63      78       2
      69      72     -75      78       2      78      75      72      81       2
      84      33     -30      96       9       9      21      -6      -3      30
      12      18     -15     -24      30      15      36     -24     -27      30
      96      33     -30     -27      30      84      36     -33     -30      30
      33      24     -36     -39      30      48      39     -42     -45      31
      48      66     -63     -78      30      69      75     -72     -81      30
%FLAG EXCLUDED_ATOMS_LIST                                                       
%FORMAT(10I8)                                                                   
       2       3       4       8      34      35      36       3       4       5
       7       8      34      35      36      37      40       4       5       6
       7       8      34      35      36      37      38      39      40       5
       6       7       8       9      37      38      40       6       7       8
       9      10      13      37      38      39       7       8       9      10
      11      12      13      14      37      38      39      40       8       9
      10      13      38      39      40       9      37      39      40      10
      11      12      13      14      15      29      33      38      39      41
      11      12      13      14      29      30      33      56      57      12
      13      14      29      30      31      32      33      54      55      56
      57      13      14      15      29      30      31      32      33      41
      54      55      56      57      14      15      16      17      29      30
      33      41      54      55      15      16      17      18      21      22
      29      41      16      17      18      19      20      21      22      23
      27      41      42      43      48      49      17      18      21      22
      41      18      19      20      21      22      23      24      26      27
      41      42      43      44      45      46      47      48      49      50
      53      19      20      21      22      23      27      42      43      44
      45      46      47      48      49      20      21      22      42      43
      44      45      46      47      48      49      21      22      42      43
      44      45      46      47      48      49      22      23      27      42
      43      44      45      46      47      48      49      23      24      25
      26      27      42      43      48      49      50      51      52      53
      24      25      26      27      28      50      51      53      25      26
      27      28      50      51      52      26      27      28      50      51
      52      53      27      28      51      52      53      28      50      52
      53      51      52      30      31      32      33      54      55      56
      57      31      32      33      54      55      56      57      32      33
      54      55      56      57      33      54      55      56      57      54
      55      56      57      35      36      36       0      38       0      40
       0       0      43      44      45      44      45      45      46      47
      46      47      47      48      49      48      49      49       0      51
       0      53       0      55       0      57       0
%FLAG HBOND_ACOEF                                                               
%FORMAT(5E16.8)                                                                 

%FLAG HBOND_BCOEF                                                               
%FORMAT(5E16.8)                                                                 

%FLAG HBCUT                                                                     
%FORMAT(5E16.8)                                                                 

%FLAG AMBER_ATOM_TYPE                                                           
%FORMAT(20a4)                                                                   
c3  os  ca  ca  ca  ca  ca  ca  na  nc  cd  cd  cc  ns  c   o   c5  c5  c5  c5  
c5  ca  ca  ca  ca  ca  ca  cl  c5  s6  o   o   c5  h1  h1  h1  ha  ha  ha  ha  
hn  hc  hc  hc  hc  hc  hc  hc  hc  ha  ha  ha  ha  h1  h1  h1  h1  
%FLAG TREE_CHAIN_CLASSIFICATION                                                 
%FORMAT(20a4)                                                                   
BLA BLA BLA BLA BLA BLA BLA BLA BLA BLA BLA BLA BLA BLA BLA BLA BLA BLA BLA BLA 
BLA BLA BLA BLA BLA BLA BLA BLA BLA BLA BLA BLA BLA BLA BLA BLA BLA BLA BLA BLA 
BLA BLA BLA BLA BLA BLA BLA BLA BLA BLA BLA BLA BLA BLA BLA BLA BLA 
%FLAG JOIN_ARRAY                                                                
%FORMAT(10I8)                                                                   
       0       0       0       0       0       0       0       0       0       0
       0       0       0       0       0       0       0       0       0       0
       0       0       0       0       0       0       0       0       0       0
       0       0       0       0       0       0       0       0       0       0
       0       0       0       0       0       0       0       0       0       0
       0       0       0       0       0       0       0
%FLAG IROTAT                                                                    
%FORMAT(10I8)                                                                   
       0       0       0       0       0       0       0       0       0       0
       0       0       0       0       0       0       0       0       0       0
       0       0       0       0       0       0       0       0       0       0
       0       0       0       0       0       0       0       0       0       0
       0       0       0       0       0       0       0       0       0       0
       0       0       0       0       0       0       0
%FLAG RADIUS_SET                                                                
%FORMAT(1a80)                                                                   
modified Bondi radii (mbondi)                                                   
%FLAG RADII                                                                     
%FORMAT(5E16.8)                                                                 
  1.70000000E+00  1.50000000E+00  1.70000000E+00  1.70000000E+00  1.70000000E+00
  1.70000000E+00  1.70000000E+00  1.70000000E+00  1.55000000E+00  1.55000000E+00
  1.70000000E+00  1.70000000E+00  1.70000000E+00  1.55000000E+00  1.70000000E+00
  1.50000000E+00  1.70000000E+00  1.70000000E+00  1.70000000E+00  1.70000000E+00
  1.70000000E+00  1.70000000E+00  1.70000000E+00  1.70000000E+00  1.70000000E+00
  1.70000000E+00  1.70000000E+00  1.70000000E+00  1.70000000E+00  1.80000000E+00
  1.50000000E+00  1.50000000E+00  1.70000000E+00  1.30000000E+00  1.30000000E+00
  1.30000000E+00  1.30000000E+00  1.30000000E+00  1.30000000E+00  1.30000000E+00
  1.30000000E+00  1.30000000E+00  1.30000000E+00  1.30000000E+00  1.30000000E+00
  1.30000000E+00  1.30000000E+00  1.30000000E+00  1.30000000E+00  1.30000000E+00
  1.30000000E+00  1.30000000E+00  1.30000000E+00  1.30000000E+00  1.30000000E+00
  1.30000000E+00  1.30000000E+00
%FLAG SCREEN                                                                    
%FORMAT(5E16.8)                                                                 
  7.20000000E-01  8.50000000E-01  7.20000000E-01  7.20000000E-01  7.20000000E-01
  7.20000000E-01  7.20000000E-01  7.20000000E-01  7.90000000E-01  7.90000000E-01
  7.20000000E-01  7.20000000E-01  7.20000000E-01  7.90000000E-01  7.20000000E-01
  8.50000000E-01  7.20000000E-01  7.20000000E-01  7.20000000E-01  7.20000000E-01
  7.20000000E-01  7.20000000E-01  7.20000000E-01  7.20000000E-01  7.20000000E-01
  7.20000000E-01  7.20000000E-01  8.00000000E-01  7.20000000E-01  9.60000000E-01
  8.50000000E-01  8.50000000E-01  7.20000000E-01  8.50000000E-01  8.50000000E-01
  8.50000000E-01  8.50000000E-01  8.50000000E-01  8.50000000E-01  8.50000000E-01
  8.50000000E-01  8.50000000E-01  8.50000000E-01  8.50000000E-01  8.50000000E-01
  8.50000000E-01  8.50000000E-01  8.50000000E-01  8.50000000E-01  8.50000000E-01
  8.50000000E-01  8.50000000E-01  8.50000000E-01  8.50000000E-01  8.50000000E-01
  8.50000000E-01  8.50000000E-01
%FLAG IPOL                                                                      
%FORMAT(1I8)                                                                    
       0
