[ moleculetype ]
; Name            nrexcl
LIG          3

[ atoms ]
;   nr       type  resnr residue  atom   cgnr    charge       mass  typeB    chargeB      massB
; residue    1 LIG rtp LIG q -0.0
    1         cc      1    LIG    C01      1 0.06531998  12.010000   ; qtot 0.065320
    2         ca      1    LIG    C02      2 -0.02418002  12.010000   ; qtot 0.041140
    3         ca      1    LIG    C03      3 -0.13598002  12.010000   ; qtot -0.094840
    4         ca      1    LIG    C04      4 -0.05128002  12.010000   ; qtot -0.146120
    5         c3      1    LIG    C05      5 -0.05878002  12.010000   ; qtot -0.204900
    6         c3      1    LIG    C06      6 -0.05878002  12.010000   ; qtot -0.263680
    7         c3      1    LIG    C07      7 -0.05978002  12.010000   ; qtot -0.323460
    8         ca      1    LIG    C08      8 -0.10298002  12.010000   ; qtot -0.426440
    9         ca      1    LIG    C09      9 -0.08328002  12.010000   ; qtot -0.509720
   10         ca      1    LIG    C10     10 -0.05128002  12.010000   ; qtot -0.561000
   11         ca      1    LIG    C11     11 -0.13298002  12.010000   ; qtot -0.693980
   12         ca      1    LIG    C12     12 -0.07598002  12.010000   ; qtot -0.769960
   13         ca      1    LIG    C13     13 -0.14958002  12.010000   ; qtot -0.919540
   14          c      1    LIG    C14     14 0.68271998  12.010000   ; qtot -0.236820
   15         cd      1    LIG    C15     15 -0.25958002  12.010000   ; qtot -0.496400
   16         cd      1    LIG    C16     16 0.31061998  12.010000   ; qtot -0.185780
   17         ca      1    LIG    C17     17 -0.10498002  12.010000   ; qtot -0.290760
   18         ca      1    LIG    C18     18 -0.05828002  12.010000   ; qtot -0.349040
   19         ca      1    LIG    C19     19 -0.13898002  12.010000   ; qtot -0.488020
   20         c5      1    LIG    C20     20 -0.01158002  12.010000   ; qtot -0.499600
   21         c5      1    LIG    C21     21 0.10601998  12.010000   ; qtot -0.393580
   22         c3      1    LIG    C22     22 -0.05478002  12.010000   ; qtot -0.448360
   23         ns      1    LIG    N23     23 -0.45108002  14.010000   ; qtot -0.899440
   24         nc      1    LIG    N24     24 -0.46378002  14.010000   ; qtot -1.363220
   25         na      1    LIG    N25     25 0.12431998  14.010000   ; qtot -1.238901
   26          o      1    LIG    O26     26 -0.56308002  16.000000   ; qtot -1.801981
   27         ss      1    LIG    S27     27 -0.34318002  32.060000   ; qtot -2.145161
   28         ha      1    LIG    H28     28 0.14001998   1.008000   ; qtot -2.005141
   29         hc      1    LIG    H29     29 0.05338698   1.008000   ; qtot -1.951754
   30         hc      1    LIG    H30     30 0.05338698   1.008000   ; qtot -1.898367
   31         hc      1    LIG    H31     31 0.05338698   1.008000   ; qtot -1.844980
   32         hc      1    LIG    H32     32 0.04905298   1.008000   ; qtot -1.795927
   33         hc      1    LIG    H33     33 0.04905298   1.008000   ; qtot -1.746874
   34         hc      1    LIG    H34     34 0.04905298   1.008000   ; qtot -1.697821
   35         hc      1    LIG    H35     35 0.04971998   1.008000   ; qtot -1.648101
   36         hc      1    LIG    H36     36 0.04971998   1.008000   ; qtot -1.598381
   37         hc      1    LIG    H37     37 0.04971998   1.008000   ; qtot -1.548661
   38         ha      1    LIG    H38     38 0.13401998   1.008000   ; qtot -1.414641
   39         ha      1    LIG    H39     39 0.14101998   1.008000   ; qtot -1.273621
   40         ha      1    LIG    H40     40 0.15401998   1.008000   ; qtot -1.119601
   41         ha      1    LIG    H41     41 0.15201998   1.008000   ; qtot -0.967581
   42         ha      1    LIG    H42     42 0.13801998   1.008000   ; qtot -0.829561
   43         h1      1    LIG    H43     43 0.08771998   1.008000   ; qtot -0.741841
   44         h1      1    LIG    H44     44 0.08771998   1.008000   ; qtot -0.654121
   45         h1      1    LIG    H45     45 0.09121998   1.008000   ; qtot -0.562901
   46         h1      1    LIG    H46     46 0.09121998   1.008000   ; qtot -0.471681
   47         hc      1    LIG    H47     47 0.04738698   1.008000   ; qtot -0.424294
   48         hc      1    LIG    H48     48 0.04738698   1.008000   ; qtot -0.376907
   49         hc      1    LIG    H49     49 0.04738698   1.008000   ; qtot -0.329520
   50         hn      1    LIG    H50     50 0.32951998   1.008000   ; qtot -0.000000

[ bonds ]
;    ai     aj funct         c0         c1         c2         c3
      1     15     1   0.13730 323205.632000
      1     23     1   0.13804 280654.352000
      1     25     1   0.13803 280746.400000
      2      4     1   0.13986 296436.400000
      2     17     1   0.13986 296436.400000
      2     25     1   0.13858 275574.976000
      3     17     1   0.13986 296436.400000
      3     18     1   0.13986 296436.400000
      4      5     1   0.15147 204103.888000
      4     19     1   0.13986 296436.400000
      6     18     1   0.15147 204103.888000
      7     10     1   0.15147 204103.888000
      8      9     1   0.13986 296436.400000
      8     13     1   0.13986 296436.400000
      9     10     1   0.13986 296436.400000
      9     22     1   0.15147 204103.888000
     10     11     1   0.13986 296436.400000
     11     12     1   0.13986 296436.400000
     12     13     1   0.13986 296436.400000
     13     14     1   0.14907 219944.512000
     14     23     1   0.13798 281223.376000
     14     26     1   0.12190 494214.080000
     15     16     1   0.14279 269022.832000
     15     21     1   0.15076 208639.344000
     16     20     1   0.15076 208639.344000
     16     24     1   0.13171 349606.672000
     18     19     1   0.13986 296436.400000
     20     27     1   0.18509 150640.736000
     21     27     1   0.18509 150640.736000
     24     25     1   0.13570 243015.088000
      3     28     1   0.10860 301825.392000
      5     29     1   0.10962 288905.200000
      5     30     1   0.10962 288905.200000
      5     31     1   0.10962 288905.200000
      6     32     1   0.10962 288905.200000
      6     33     1   0.10962 288905.200000
      6     34     1   0.10962 288905.200000
      7     35     1   0.10962 288905.200000
      7     36     1   0.10962 288905.200000
      7     37     1   0.10962 288905.200000
      8     38     1   0.10860 301825.392000
     11     39     1   0.10860 301825.392000
     12     40     1   0.10860 301825.392000
     17     41     1   0.10860 301825.392000
     19     42     1   0.10860 301825.392000
     20     43     1   0.10972 287675.104000
     20     44     1   0.10972 287675.104000
     21     45     1   0.10972 287675.104000
     21     46     1   0.10972 287675.104000
     22     47     1   0.10962 288905.200000
     22     48     1   0.10962 288905.200000
     22     49     1   0.10962 288905.200000
     23     50     1   0.10132 396300.112000

[ pairs ]
;    ai     aj funct         c0         c1         c2         c3
      1     20     1
      1     27     1
      1     13     1
      1     26     1
      1      4     1
      1     17     1
      2     18     1
      2     15     1
      2     23     1
      2     16     1
      3      4     1
      3     25     1
      4     24     1
      4      6     1
      5     17     1
      5     25     1
      5     18     1
      6     17     1
      7      8     1
      7     22     1
      7     12     1
      8     11     1
      8     23     1
      8     26     1
      9     12     1
      9     14     1
     10     13     1
     11     22     1
     11     14     1
     12     23     1
     12     26     1
     13     22     1
     14     15     1
     14     25     1
     16     23     1
     17     19     1
     17     24     1
     19     25     1
     20     25     1
     21     23     1
     21     25     1
     21     24     1
     23     24     1
     24     27     1
      1     45     1
      1     46     1
      2     29     1
      2     30     1
      2     31     1
      2     42     1
      2     28     1
      3     32     1
      3     33     1
      3     34     1
      3     42     1
      4     41     1
      5     42     1
      6     28     1
      6     42     1
      7     39     1
      8     47     1
      8     48     1
      8     49     1
      8     40     1
      9     35     1
      9     36     1
      9     37     1
      9     39     1
     10     38     1
     10     47     1
     10     48     1
     10     49     1
     10     40     1
     11     35     1
     11     36     1
     11     37     1
     12     38     1
     13     39     1
     13     50     1
     14     38     1
     14     40     1
     15     50     1
     15     43     1
     15     44     1
     16     45     1
     16     46     1
     18     41     1
     19     29     1
     19     30     1
     19     31     1
     19     28     1
     19     32     1
     19     33     1
     19     34     1
     20     45     1
     20     46     1
     21     43     1
     21     44     1
     22     38     1
     24     43     1
     24     44     1
     25     50     1
     25     41     1
     26     50     1
     28     41     1
     39     40     1

[ angles ]
;    ai     aj     ak funct         c0         c1         c2         c3
      1     15     16     1   116.2100496 540.321760
      1     15     21     1   113.3600487 530.029120
      1     23     14     1   125.1800534 653.457120
      1     25      2     1   117.3200505 673.540320
      1     25     24     1   114.5700490 731.028480
      2      4      5     1   120.8300518 508.272320
      2      4     19     1   120.0200517 532.790560
      2     17      3     1   120.0200517 532.790560
      2     25     24     1   114.4700490 729.773280
      3     18      6     1   120.8300518 508.272320
      3     18     19     1   120.0200517 532.790560
      4      2     17     1   120.0200517 532.790560
      4      2     25     1   120.3100514 567.517760
      4     19     18     1   120.0200517 532.790560
      5      4     19     1   120.8300518 508.272320
      6     18     19     1   120.8300518 508.272320
      7     10      9     1   120.8300518 508.272320
      7     10     11     1   120.8300518 508.272320
      8      9     10     1   120.0200517 532.790560
      8      9     22     1   120.8300518 508.272320
      8     13     12     1   120.0200517 532.790560
      8     13     14     1   120.3300516 514.129920
      9      8     13     1   120.0200517 532.790560
      9     10     11     1   120.0200517 532.790560
     10      9     22     1   120.8300518 508.272320
     10     11     12     1   120.0200517 532.790560
     11     12     13     1   120.0200517 532.790560
     12     13     14     1   120.3300516 514.129920
     13     14     23     1   115.0900495 561.158080
     13     14     26     1   122.6000525 652.369280
     15      1     23     1   121.4500523 571.199680
     15      1     25     1   106.7500460 609.274080
     15     16     20     1   128.7100550 489.528000
     15     16     24     1   120.7000517 572.873280
     15     21     27     1   106.6600458 535.468320
     16     15     21     1   128.7100550 489.528000
     16     20     27     1   106.6600458 535.468320
     16     24     25     1   103.8300446 785.755200
     17      2     25     1   120.3100514 567.517760
     17      3     18     1   120.0200517 532.790560
     20     16     24     1   121.4100519 551.869600
     20     27     21     1   92.2700395 801.403360
     23      1     25     1   122.9200529 601.157120
     23     14     26     1   123.0500530 729.773280
      1     23     50     1   118.9100508 476.557600
      2     17     41     1   119.8800511 375.723200
      3     17     41     1   119.8800511 375.723200
      4      5     29     1   110.6300475 364.928480
      4      5     30     1   110.6300475 364.928480
      4      5     31     1   110.6300475 364.928480
      4     19     42     1   119.8800511 375.723200
      9      8     38     1   119.8800511 375.723200
      9     22     47     1   110.6300475 364.928480
      9     22     48     1   110.6300475 364.928480
      9     22     49     1   110.6300475 364.928480
     10      7     35     1   110.6300475 364.928480
     10      7     36     1   110.6300475 364.928480
     10      7     37     1   110.6300475 364.928480
     10     11     39     1   119.8800511 375.723200
     11     12     40     1   119.8800511 375.723200
     12     11     39     1   119.8800511 375.723200
     13      8     38     1   119.8800511 375.723200
     13     12     40     1   119.8800511 375.723200
     14     23     50     1   117.2600504 480.072160
     15     21     45     1   109.2600469 368.694080
     15     21     46     1   109.2600469 368.694080
     16     20     43     1   109.2600469 368.694080
     16     20     44     1   109.2600469 368.694080
     17      3     28     1   119.8800511 375.723200
     18      3     28     1   119.8800511 375.723200
     18      6     32     1   110.6300475 364.928480
     18      6     33     1   110.6300475 364.928480
     18      6     34     1   110.6300475 364.928480
     18     19     42     1   119.8800511 375.723200
     27     20     43     1   109.1400467 349.112960
     27     20     44     1   109.1400467 349.112960
     27     21     45     1   109.1400467 349.112960
     27     21     46     1   109.1400467 349.112960
     29      5     30     1   107.7300462 299.574400
     29      5     31     1   107.7300462 299.574400
     30      5     31     1   107.7300462 299.574400
     32      6     33     1   107.7300462 299.574400
     32      6     34     1   107.7300462 299.574400
     33      6     34     1   107.7300462 299.574400
     35      7     36     1   107.7300462 299.574400
     35      7     37     1   107.7300462 299.574400
     36      7     37     1   107.7300462 299.574400
     43     20     44     1   108.1300464 298.737600
     45     21     46     1   108.1300464 298.737600
     47     22     48     1   107.7300462 299.574400
     47     22     49     1   107.7300462 299.574400
     48     22     49     1   107.7300462 299.574400

[ dihedrals ]
;    ai     aj     ak     al funct         c0         c1         c2         c3         c4         c5
      1     15     16     20     1  180.0000771  16.7360000  2
      1     15     16     24     1  180.0000771  16.7360000  2
      1     15     21     27     1  0.0000000  0.0000000  3
      1     23     14     13     1  0.0000000  0.0000000  1
      1     23     14     26     1  180.0000771  10.4600000  2
      1     25      2      4     1  180.0000771  2.5647920  2
      1     25      2     17     1  180.0000771  2.5647920  2
      1     25     24     16     1  180.0000771  20.0832000  2
      2      4     19     18     1  180.0000771  15.1670000  2
      2     17      3     18     1  180.0000771  15.1670000  2
      2     25      1     15     1  180.0000771  7.1128000  2
      2     25      1     23     1  180.0000771  7.1128000  2
      2     25     24     16     1  180.0000771  20.0832000  2
      3     17      2      4     1  180.0000771  15.1670000  2
      3     17      2     25     1  180.0000771  15.1670000  2
      3     18     19      4     1  180.0000771  15.1670000  2
      4      2     25     24     1  180.0000771  1.2552000  2
      4     19     18      6     1  180.0000771  15.1670000  2
      5      4      2     17     1  180.0000771  15.1670000  2
      5      4      2     25     1  180.0000771  15.1670000  2
      5      4     19     18     1  180.0000771  15.1670000  2
      6     18      3     17     1  180.0000771  15.1670000  2
      7     10      9      8     1  180.0000771  15.1670000  2
      7     10      9     22     1  180.0000771  15.1670000  2
      7     10     11     12     1  180.0000771  15.1670000  2
      8      9     10     11     1  180.0000771  15.1670000  2
      8     13     12     11     1  180.0000771  15.1670000  2
      8     13     14     23     1  180.0000771  8.8805400  2
      8     13     14     26     1  180.0000771  2.4267200  2
      9      8     13     12     1  180.0000771  15.1670000  2
      9      8     13     14     1  180.0000771  15.1670000  2
      9     10     11     12     1  180.0000771  15.1670000  2
     10      9      8     13     1  180.0000771  15.1670000  2
     10     11     12     13     1  180.0000771  15.1670000  2
     11     10      9     22     1  180.0000771  15.1670000  2
     11     12     13     14     1  180.0000771  15.1670000  2
     12     13     14     23     1  180.0000771  8.8805400  2
     12     13     14     26     1  180.0000771  2.4267200  2
     13      8      9     22     1  180.0000771  15.1670000  2
     14     23      1     15     1  180.0000771  6.9036000  2
     14     23      1     25     1  180.0000771  6.9036000  2
     15      1     25     24     1  180.0000771  7.1128000  2
     15     16     20     27     1  0.0000000  0.0000000  3
     15     16     24     25     1  180.0000771  19.8740000  2
     15     21     27     20     1  0.0000000  1.3946667  3
     16     15      1     23     1  180.0000771  16.7360000  2
     16     15      1     25     1  180.0000771  16.7360000  2
     16     15     21     27     1  0.0000000  0.0000000  3
     16     20     27     21     1  0.0000000  1.3946667  3
     17      2      4     19     1  180.0000771  15.1670000  2
     17      2     25     24     1  180.0000771  1.2552000  2
     17      3     18     19     1  180.0000771  15.1670000  2
     19      4      2     25     1  180.0000771  15.1670000  2
     20     16     15     21     1  180.0000771  16.7360000  2
     20     16     24     25     1  180.0000771  19.8740000  2
     21     15      1     23     1  180.0000771  16.7360000  2
     21     15      1     25     1  180.0000771  16.7360000  2
     21     15     16     24     1  180.0000771  16.7360000  2
     23      1     25     24     1  180.0000771  7.1128000  2
     24     16     20     27     1  0.0000000  0.0000000  3
     15     25      1     23     4  180.0000771  4.6024000  2
      4     17      2     25     4  180.0000771  4.6024000  2
      2     19      4      5     4  180.0000771  4.6024000  2
     22      8      9     10     4  180.0000771  4.6024000  2
      7      9     10     11     4  180.0000771  4.6024000  2
     14      8     13     12     4  180.0000771  4.6024000  2
     13     23     14     26     4  180.0000771  43.9320000  2
     21      1     15     16     4  180.0000771  4.6024000  2
     20     15     16     24     4  180.0000771  4.6024000  2
      6      3     18     19     4  180.0000771  4.6024000  2
      2      1     25     24     4  180.0000771  4.6024000  2
      1     15     21     45     1  0.0000000  0.0000000  3
      1     15     21     46     1  0.0000000  0.0000000  3
      2      4      5     29     1  0.0000000  0.0000000  1
      2      4      5     30     1  0.0000000  0.0000000  1
      2      4      5     31     1  0.0000000  0.0000000  1
      2      4     19     42     1  180.0000771  15.1670000  2
      2     17      3     28     1  180.0000771  15.1670000  2
      3     18      6     32     1  0.0000000  0.0000000  1
      3     18      6     33     1  0.0000000  0.0000000  1
      3     18      6     34     1  0.0000000  0.0000000  1
      3     18     19     42     1  180.0000771  15.1670000  2
      4      2     17     41     1  180.0000771  15.1670000  2
      5      4     19     42     1  180.0000771  15.1670000  2
      6     18      3     28     1  180.0000771  15.1670000  2
      6     18     19     42     1  180.0000771  15.1670000  2
      7     10     11     39     1  180.0000771  15.1670000  2
      8      9     22     47     1  0.0000000  0.0000000  1
      8      9     22     48     1  0.0000000  0.0000000  1
      8      9     22     49     1  0.0000000  0.0000000  1
      8     13     12     40     1  180.0000771  15.1670000  2
      9     10      7     35     1  0.0000000  0.0000000  1
      9     10      7     36     1  0.0000000  0.0000000  1
      9     10      7     37     1  0.0000000  0.0000000  1
      9     10     11     39     1  180.0000771  15.1670000  2
     10      9      8     38     1  180.0000771  15.1670000  2
     10      9     22     47     1  0.0000000  0.0000000  1
     10      9     22     48     1  0.0000000  0.0000000  1
     10      9     22     49     1  0.0000000  0.0000000  1
     10     11     12     40     1  180.0000771  15.1670000  2
     11     10      7     35     1  0.0000000  0.0000000  1
     11     10      7     36     1  0.0000000  0.0000000  1
     11     10      7     37     1  0.0000000  0.0000000  1
     12     13      8     38     1  180.0000771  15.1670000  2
     13     12     11     39     1  180.0000771  15.1670000  2
     13     14     23     50     1  180.0000771  10.4600000  2
     14     13      8     38     1  180.0000771  15.1670000  2
     14     13     12     40     1  180.0000771  15.1670000  2
     15      1     23     50     1  180.0000771  6.9036000  2
     15     16     20     43     1  0.0000000  0.0000000  3
     15     16     20     44     1  0.0000000  0.0000000  3
     16     15     21     45     1  0.0000000  0.0000000  3
     16     15     21     46     1  0.0000000  0.0000000  3
     18      3     17     41     1  180.0000771  15.1670000  2
     19      4      5     29     1  0.0000000  0.0000000  1
     19      4      5     30     1  0.0000000  0.0000000  1
     19      4      5     31     1  0.0000000  0.0000000  1
     19     18      3     28     1  180.0000771  15.1670000  2
     19     18      6     32     1  0.0000000  0.0000000  1
     19     18      6     33     1  0.0000000  0.0000000  1
     19     18      6     34     1  0.0000000  0.0000000  1
     20     27     21     45     1  0.0000000  0.9204800  3
     20     27     21     46     1  0.0000000  0.9204800  3
     21     27     20     43     1  0.0000000  0.9204800  3
     21     27     20     44     1  0.0000000  0.9204800  3
     22      9      8     38     1  180.0000771  15.1670000  2
     24     16     20     43     1  0.0000000  0.0000000  3
     24     16     20     44     1  0.0000000  0.0000000  3
     25      1     23     50     1  180.0000771  6.9036000  2
     25      2     17     41     1  180.0000771  15.1670000  2
     26     14     23     50     1  0.0000000  8.3680000  1
     26     14     23     50     1  180.0000771  10.4600000  2
     28      3     17     41     1  180.0000771  15.1670000  2
     39     11     12     40     1  180.0000771  15.1670000  2
     17     18      3     28     4  180.0000771  4.6024000  2
      9     13      8     38     4  180.0000771  4.6024000  2
     10     12     11     39     4  180.0000771  4.6024000  2
     11     13     12     40     4  180.0000771  4.6024000  2
      2      3     17     41     4  180.0000771  4.6024000  2
      4     18     19     42     4  180.0000771  4.6024000  2
     14      1     23     50     4  180.0000771  4.6024000  2



#ifdef POSRES
#include "posre_LIG.itp"
#endif

