title                   = CRY2 apo seed 455760 ps - independent 500 ns metadynamics
; Physical settings inherited from the parent md.mdp.
integrator              = md
dt                      = 0.002
nsteps                  = 250000000
tinit                   = 0
init-step               = 0
nstenergy               = 5000
nstlog                  = 5000
nstxout-compressed      = 5000
nstxout                 = 0
nstvout                 = 0
nstfout                 = 0
; XTC-derived coordinates have no velocities: initialize a new simulation.
continuation            = no
gen_vel                 = yes
gen_temp                = 300
gen_seed                = 455760
constraint_algorithm    = lincs
constraints             = h-bonds
lincs_iter              = 1
lincs_order             = 4
cutoff-scheme           = Verlet
nstlist                 = 20
rlist                   = 1.2
vdwtype                 = cutoff
vdw-modifier            = force-switch
rvdw-switch             = 1.0
rvdw                    = 1.2
coulombtype             = PME
rcoulomb                = 1.2
pme_order               = 4
fourierspacing          = 0.16
tcoupl                  = V-rescale
tc-grps                 = System
tau_t                   = 1.0
ref_t                   = 300
pcoupl                  = Parrinello-Rahman
pcoupltype              = isotropic
tau_p                   = 15.0
ref_p                   = 1.0
compressibility         = 4.5e-5
pbc                     = xyz
DispCorr                = no
