title = CRY1 apo W399 positive WT-MetaD 500 ns
; Run parameters
integrator              = md        ; leap-frog integrator
nsteps = 250000000 ; 500 ns with dt = 0.002 ps
dt                      = 0.002     ; 2 fs
; Output control
nstenergy               = 5000      ; save energies every 10.0 ps
nstlog                  = 5000      ; update log file every 10.0 ps
nstxout-compressed      = 5000      ; save coordinates every 10.0 ps
; Bond parameters
continuation = no ; new independent run from an XTC seed without velocities
constraint_algorithm    = lincs     ; holonomic constraints 
constraints             = h-bonds   ; bonds to H are constrained
lincs_iter              = 1         ; accuracy of LINCS
lincs_order             = 4         ; also related to accuracy
; Neighbor searching and vdW
cutoff-scheme           = Verlet
ns_type                 = grid      ; search neighboring grid cells
nstlist                 = 20        ; largely irrelevant with Verlet
rlist                   = 1.2
vdwtype                 = cutoff
vdw-modifier            = force-switch
rvdw-switch             = 1.0
rvdw                    = 1.2       ; short-range van der Waals cutoff (in nm)
; Electrostatics
coulombtype             = PME       ; Particle Mesh Ewald for long-range electrostatics
rcoulomb                = 1.2
pme_order               = 4         ; cubic interpolation
fourierspacing          = 0.16      ; grid spacing for FFT

; Temperature coupling
tcoupl                  = V-rescale                     ; modified Berendsen thermostat
tc-grps                 = system    ; two coupling groups - more accurate
tau_t                   = 1.0                       ; further increased time constant for temperature coupling                     ; increased time constant for temperature coupling
ref_t                   = 300                       ; reference temperature, one for each group, in K
; Pressure coupling 
pcoupl                  = Parrinello-Rahman             ; pressure coupling is on for NPT
pcoupltype              = isotropic                     ; uniform scaling of box vectors
tau_p                   = 15.0      ; further increased time constant for pressure coupling                           ; further increased time constant for pressure coupling                           ; increased time constant for pressure coupling
ref_p                   = 1.0                           ; reference pressure, in bar
compressibility         = 4.5e-5                        ; isothermal compressibility of water, bar^-1
; Periodic boundary conditions
pbc                     = xyz       ; 3-D PBC
; Dispersion correction is not used for proteins with the C36 additive FF
DispCorr                = no 
; Velocity generation
gen_vel = yes ; generate initial velocities for this independent run

gen_temp = 300
gen_seed = 210903
