title                   = Protein-ligand metadynamics

integrator              = md
dt                      = 0.002
nsteps                  = 50000000

nstenergy               = 1000
nstlog                  = 1000
nstxout-compressed      = 5000

continuation            = yes
constraint_algorithm    = lincs
constraints             = h-bonds
lincs_iter              = 1
lincs_order             = 4

cutoff-scheme           = Verlet
nstlist                 = 20
rlist                   = 1.2
vdwtype                 = cutoff
vdw-modifier            = force-switch
rvdw-switch             = 1.0
rvdw                    = 1.2

coulombtype             = PME
rcoulomb                = 1.2
pme_order               = 4
fourierspacing          = 0.16

tcoupl                  = V-rescale
tc-grps                 = System
tau_t                   = 1.0
ref_t                   = 300

pcoupl                  = Parrinello-Rahman
pcoupltype              = isotropic
tau_p                   = 5.0
ref_p                   = 1.0
compressibility         = 4.5e-5

pbc                     = xyz
DispCorr                = no

gen_vel                 = no
