; DYX_smiles_GMX.itp created by acpype (v: 2022.7.21) on Tue May 12 23:46:03 2026

[ atomtypes ]
;name   bond_type     mass     charge   ptype   sigma         epsilon       Amb
 c3       c3          0.00000  0.00000   A     3.39771e-01   4.51035e-01 ; 1.91  0.1078
 os       os          0.00000  0.00000   A     3.15610e-01   3.03758e-01 ; 1.77  0.0726
 ca       ca          0.00000  0.00000   A     3.31521e-01   4.13379e-01 ; 1.86  0.0988
 na       na          0.00000  0.00000   A     3.20581e-01   8.54373e-01 ; 1.80  0.2042
 nc       nc          0.00000  0.00000   A     3.38417e-01   3.93714e-01 ; 1.90  0.0941
 cd       cd          0.00000  0.00000   A     3.31521e-01   4.13379e-01 ; 1.86  0.0988
 cc       cc          0.00000  0.00000   A     3.31521e-01   4.13379e-01 ; 1.86  0.0988
 ns       ns          0.00000  0.00000   A     3.26995e-01   4.91202e-01 ; 1.84  0.1174
 c        c           0.00000  0.00000   A     3.31521e-01   4.13379e-01 ; 1.86  0.0988
 o        o           0.00000  0.00000   A     3.04812e-01   6.12119e-01 ; 1.71  0.1463
 c5       c5          0.00000  0.00000   A     3.39771e-01   4.51035e-01 ; 1.91  0.1078
 cl       cl          0.00000  0.00000   A     3.46595e-01   1.10374e+00 ; 1.95  0.2638
 s6       s6          0.00000  0.00000   A     4.05840e-01   2.56898e-01 ; 2.28  0.0614
 h1       h1          0.00000  0.00000   A     2.42200e-01   8.70272e-02 ; 1.36  0.0208
 ha       ha          0.00000  0.00000   A     2.62548e-01   6.73624e-02 ; 1.47  0.0161
 hn       hn          0.00000  0.00000   A     1.10650e-01   4.18400e-02 ; 0.62  0.0100
 hc       hc          0.00000  0.00000   A     2.60018e-01   8.70272e-02 ; 1.46  0.0208

[ moleculetype ]
;name            nrexcl
 DYX_smiles       3

[ atoms ]
;   nr  type  resi  res  atom  cgnr     charge      mass       ; qtot   bond_type
     1   c3     1   UNL     C    1     0.110700     12.01000 ; qtot 0.111
     2   os     1   UNL     O    2    -0.319900     16.00000 ; qtot -0.209
     3   ca     1   UNL    C1    3     0.140100     12.01000 ; qtot -0.069
     4   ca     1   UNL    C2    4    -0.173500     12.01000 ; qtot -0.243
     5   ca     1   UNL    C3    5    -0.082500     12.01000 ; qtot -0.325
     6   ca     1   UNL    C4    6    -0.040200     12.01000 ; qtot -0.365
     7   ca     1   UNL    C5    7    -0.082500     12.01000 ; qtot -0.448
     8   ca     1   UNL    C6    8    -0.173500     12.01000 ; qtot -0.621
     9   na     1   UNL     N    9     0.128300     14.01000 ; qtot -0.493
    10   nc     1   UNL    N1   10    -0.429800     14.01000 ; qtot -0.923
    11   cd     1   UNL    C7   11     0.295600     12.01000 ; qtot -0.627
    12   cd     1   UNL    C8   12    -0.230600     12.01000 ; qtot -0.858
    13   cc     1   UNL    C9   13     0.064300     12.01000 ; qtot -0.794
    14   ns     1   UNL    N2   14    -0.458100     14.01000 ; qtot -1.252
    15    c     1   UNL   C10   15     0.679100     12.01000 ; qtot -0.573
    16    o     1   UNL    O1   16    -0.590100     16.00000 ; qtot -1.163
    17   c5     1   UNL   C11   17    -0.051700     12.01000 ; qtot -1.214
    18   c5     1   UNL   C12   18    -0.074900     12.01000 ; qtot -1.289
    19   c5     1   UNL   C13   19    -0.079400     12.01000 ; qtot -1.369
    20   c5     1   UNL   C14   20    -0.079400     12.01000 ; qtot -1.448
    21   c5     1   UNL   C15   21    -0.074900     12.01000 ; qtot -1.523
    22   ca     1   UNL   C16   22    -0.077300     12.01000 ; qtot -1.600
    23   ca     1   UNL   C17   23    -0.119500     12.01000 ; qtot -1.720
    24   ca     1   UNL   C18   24    -0.125000     12.01000 ; qtot -1.845
    25   ca     1   UNL   C19   25     0.014400     12.01000 ; qtot -1.830
    26   ca     1   UNL   C20   26    -0.125000     12.01000 ; qtot -1.955
    27   ca     1   UNL   C21   27    -0.119500     12.01000 ; qtot -2.075
    28   cl     1   UNL    CL   28    -0.085400     35.45000 ; qtot -2.160
    29   c5     1   UNL   C22   29    -0.199300     12.01000 ; qtot -2.359
    30   s6     1   UNL     S   30     1.276001     32.06000 ; qtot -1.083
    31    o     1   UNL    O2   31    -0.640800     16.00000 ; qtot -1.724
    32    o     1   UNL    O3   32    -0.640800     16.00000 ; qtot -2.365
    33   c5     1   UNL   C23   33    -0.299900     12.01000 ; qtot -2.665
    34   h1     1   UNL     H   34     0.049033      1.00800 ; qtot -2.616
    35   h1     1   UNL    H1   35     0.049033      1.00800 ; qtot -2.567
    36   h1     1   UNL    H2   36     0.049033      1.00800 ; qtot -2.518
    37   ha     1   UNL    H3   37     0.154000      1.00800 ; qtot -2.364
    38   ha     1   UNL    H4   38     0.148500      1.00800 ; qtot -2.215
    39   ha     1   UNL    H5   39     0.148500      1.00800 ; qtot -2.067
    40   ha     1   UNL    H6   40     0.154000      1.00800 ; qtot -1.913
    41   hn     1   UNL    H7   41     0.329500      1.00800 ; qtot -1.583
    42   hc     1   UNL    H8   42     0.061450      1.00800 ; qtot -1.522
    43   hc     1   UNL    H9   43     0.061450      1.00800 ; qtot -1.461
    44   hc     1   UNL   H10   44     0.046450      1.00800 ; qtot -1.414
    45   hc     1   UNL   H11   45     0.046450      1.00800 ; qtot -1.368
    46   hc     1   UNL   H12   46     0.046450      1.00800 ; qtot -1.321
    47   hc     1   UNL   H13   47     0.046450      1.00800 ; qtot -1.275
    48   hc     1   UNL   H14   48     0.061450      1.00800 ; qtot -1.213
    49   hc     1   UNL   H15   49     0.061450      1.00800 ; qtot -1.152
    50   ha     1   UNL   H16   50     0.150000      1.00800 ; qtot -1.002
    51   ha     1   UNL   H17   51     0.155000      1.00800 ; qtot -0.847
    52   ha     1   UNL   H18   52     0.155000      1.00800 ; qtot -0.692
    53   ha     1   UNL   H19   53     0.150000      1.00800 ; qtot -0.542
    54   h1     1   UNL   H20   54     0.135700      1.00800 ; qtot -0.406
    55   h1     1   UNL   H21   55     0.135700      1.00800 ; qtot -0.270
    56   h1     1   UNL   H22   56     0.135200      1.00800 ; qtot -0.135
    57   h1     1   UNL   H23   57     0.135200      1.00800 ; qtot 0.000

[ bonds ]
;   ai     aj funct   r             k
     1      2   1    1.4273e-01    2.3620e+05 ;      C - O     
     1     34   1    1.0969e-01    2.8804e+05 ;      C - H     
     1     35   1    1.0969e-01    2.8804e+05 ;      C - H1    
     1     36   1    1.0969e-01    2.8804e+05 ;      C - H2    
     2      3   1    1.3688e-01    2.8731e+05 ;      O - C1    
     3      4   1    1.3986e-01    2.9644e+05 ;     C1 - C2    
     3      8   1    1.3986e-01    2.9644e+05 ;     C1 - C6    
     4      5   1    1.3986e-01    2.9644e+05 ;     C2 - C3    
     4     37   1    1.0860e-01    3.0183e+05 ;     C2 - H3    
     5      6   1    1.3986e-01    2.9644e+05 ;     C3 - C4    
     5     38   1    1.0860e-01    3.0183e+05 ;     C3 - H4    
     6      7   1    1.3986e-01    2.9644e+05 ;     C4 - C5    
     6      9   1    1.3858e-01    2.7557e+05 ;     C4 - N     
     7      8   1    1.3986e-01    2.9644e+05 ;     C5 - C6    
     7     39   1    1.0860e-01    3.0183e+05 ;     C5 - H5    
     8     40   1    1.0860e-01    3.0183e+05 ;     C6 - H6    
     9     10   1    1.3570e-01    2.4302e+05 ;      N - N1    
     9     13   1    1.3803e-01    2.8075e+05 ;      N - C9    
    10     11   1    1.3171e-01    3.4961e+05 ;     N1 - C7    
    11     12   1    1.4279e-01    2.6902e+05 ;     C7 - C8    
    11     33   1    1.5076e-01    2.0864e+05 ;     C7 - C23   
    12     13   1    1.3730e-01    3.2321e+05 ;     C8 - C9    
    12     29   1    1.5076e-01    2.0864e+05 ;     C8 - C22   
    13     14   1    1.3804e-01    2.8065e+05 ;     C9 - N2    
    14     15   1    1.3798e-01    2.8122e+05 ;     N2 - C10   
    14     41   1    1.0132e-01    3.9630e+05 ;     N2 - H7    
    15     16   1    1.2190e-01    4.9421e+05 ;    C10 - O1    
    15     17   1    1.5346e-01    1.9200e+05 ;    C10 - C11   
    17     18   1    1.5483e-01    1.8418e+05 ;    C11 - C12   
    17     21   1    1.5483e-01    1.8418e+05 ;    C11 - C15   
    17     22   1    1.5151e-01    2.0384e+05 ;    C11 - C16   
    18     19   1    1.5483e-01    1.8418e+05 ;    C12 - C13   
    18     42   1    1.0954e-01    2.8989e+05 ;    C12 - H8    
    18     43   1    1.0954e-01    2.8989e+05 ;    C12 - H9    
    19     20   1    1.5483e-01    1.8418e+05 ;    C13 - C14   
    19     44   1    1.0954e-01    2.8989e+05 ;    C13 - H10   
    19     45   1    1.0954e-01    2.8989e+05 ;    C13 - H11   
    20     21   1    1.5483e-01    1.8418e+05 ;    C14 - C15   
    20     46   1    1.0954e-01    2.8989e+05 ;    C14 - H12   
    20     47   1    1.0954e-01    2.8989e+05 ;    C14 - H13   
    21     48   1    1.0954e-01    2.8989e+05 ;    C15 - H14   
    21     49   1    1.0954e-01    2.8989e+05 ;    C15 - H15   
    22     23   1    1.3986e-01    2.9644e+05 ;    C16 - C17   
    22     27   1    1.3986e-01    2.9644e+05 ;    C16 - C21   
    23     24   1    1.3986e-01    2.9644e+05 ;    C17 - C18   
    23     50   1    1.0860e-01    3.0183e+05 ;    C17 - H16   
    24     25   1    1.3986e-01    2.9644e+05 ;    C18 - C19   
    24     51   1    1.0860e-01    3.0183e+05 ;    C18 - H17   
    25     26   1    1.3986e-01    2.9644e+05 ;    C19 - C20   
    25     28   1    1.7572e-01    1.5730e+05 ;    C19 - CL    
    26     27   1    1.3986e-01    2.9644e+05 ;    C20 - C21   
    26     52   1    1.0860e-01    3.0183e+05 ;    C20 - H18   
    27     53   1    1.0860e-01    3.0183e+05 ;    C21 - H19   
    29     30   1    1.8694e-01    1.4379e+05 ;    C22 - S     
    29     54   1    1.0972e-01    2.8768e+05 ;    C22 - H20   
    29     55   1    1.0972e-01    2.8768e+05 ;    C22 - H21   
    30     31   1    1.4657e-01    5.1421e+05 ;      S - O2    
    30     32   1    1.4657e-01    5.1421e+05 ;      S - O3    
    30     33   1    1.8694e-01    1.4379e+05 ;      S - C23   
    33     56   1    1.0972e-01    2.8768e+05 ;    C23 - H22   
    33     57   1    1.0972e-01    2.8768e+05 ;    C23 - H23   

[ pairs ]
;   ai     aj    funct
     1      4      1 ;      C - C2    
     1      8      1 ;      C - C6    
     2      5      1 ;      O - C3    
     2      7      1 ;      O - C5    
     2     37      1 ;      O - H3    
     2     40      1 ;      O - H6    
     3      6      1 ;     C1 - C4    
     3     38      1 ;     C1 - H4    
     3     39      1 ;     C1 - H5    
     4      7      1 ;     C2 - C5    
     4      9      1 ;     C2 - N     
     4     40      1 ;     C2 - H6    
     5      8      1 ;     C3 - C6    
     5     10      1 ;     C3 - N1    
     5     13      1 ;     C3 - C9    
     5     39      1 ;     C3 - H5    
     6     11      1 ;     C4 - C7    
     6     12      1 ;     C4 - C8    
     6     14      1 ;     C4 - N2    
     6     37      1 ;     C4 - H3    
     6     40      1 ;     C4 - H6    
     7     10      1 ;     C5 - N1    
     7     13      1 ;     C5 - C9    
     7     38      1 ;     C5 - H4    
     8      9      1 ;     C6 - N     
     8     37      1 ;     C6 - H3    
     9     15      1 ;      N - C10   
     9     29      1 ;      N - C22   
     9     33      1 ;      N - C23   
     9     38      1 ;      N - H4    
     9     39      1 ;      N - H5    
     9     41      1 ;      N - H7    
    10     14      1 ;     N1 - N2    
    10     29      1 ;     N1 - C22   
    10     30      1 ;     N1 - S     
    10     56      1 ;     N1 - H22   
    10     57      1 ;     N1 - H23   
    11     14      1 ;     C7 - N2    
    11     31      1 ;     C7 - O2    
    11     32      1 ;     C7 - O3    
    11     54      1 ;     C7 - H20   
    11     55      1 ;     C7 - H21   
    12     15      1 ;     C8 - C10   
    12     31      1 ;     C8 - O2    
    12     32      1 ;     C8 - O3    
    12     41      1 ;     C8 - H7    
    12     56      1 ;     C8 - H22   
    12     57      1 ;     C8 - H23   
    13     16      1 ;     C9 - O1    
    13     17      1 ;     C9 - C11   
    13     30      1 ;     C9 - S     
    13     33      1 ;     C9 - C23   
    13     54      1 ;     C9 - H20   
    13     55      1 ;     C9 - H21   
    14     18      1 ;     N2 - C12   
    14     21      1 ;     N2 - C15   
    14     22      1 ;     N2 - C16   
    14     29      1 ;     N2 - C22   
    15     19      1 ;    C10 - C13   
    15     20      1 ;    C10 - C14   
    15     23      1 ;    C10 - C17   
    15     27      1 ;    C10 - C21   
    15     42      1 ;    C10 - H8    
    15     43      1 ;    C10 - H9    
    15     48      1 ;    C10 - H14   
    15     49      1 ;    C10 - H15   
    16     18      1 ;     O1 - C12   
    16     21      1 ;     O1 - C15   
    16     22      1 ;     O1 - C16   
    16     41      1 ;     O1 - H7    
    17     24      1 ;    C11 - C18   
    17     26      1 ;    C11 - C20   
    17     41      1 ;    C11 - H7    
    17     44      1 ;    C11 - H10   
    17     45      1 ;    C11 - H11   
    17     46      1 ;    C11 - H12   
    17     47      1 ;    C11 - H13   
    17     50      1 ;    C11 - H16   
    17     53      1 ;    C11 - H19   
    18     23      1 ;    C12 - C17   
    18     27      1 ;    C12 - C21   
    18     46      1 ;    C12 - H12   
    18     47      1 ;    C12 - H13   
    18     48      1 ;    C12 - H14   
    18     49      1 ;    C12 - H15   
    19     22      1 ;    C13 - C16   
    19     48      1 ;    C13 - H14   
    19     49      1 ;    C13 - H15   
    20     22      1 ;    C14 - C16   
    20     42      1 ;    C14 - H8    
    20     43      1 ;    C14 - H9    
    21     23      1 ;    C15 - C17   
    21     27      1 ;    C15 - C21   
    21     42      1 ;    C15 - H8    
    21     43      1 ;    C15 - H9    
    21     44      1 ;    C15 - H10   
    21     45      1 ;    C15 - H11   
    22     25      1 ;    C16 - C19   
    22     42      1 ;    C16 - H8    
    22     43      1 ;    C16 - H9    
    22     48      1 ;    C16 - H14   
    22     49      1 ;    C16 - H15   
    22     51      1 ;    C16 - H17   
    22     52      1 ;    C16 - H18   
    23     26      1 ;    C17 - C20   
    23     28      1 ;    C17 - CL    
    23     53      1 ;    C17 - H19   
    24     27      1 ;    C18 - C21   
    24     52      1 ;    C18 - H18   
    25     50      1 ;    C19 - H16   
    25     53      1 ;    C19 - H19   
    26     51      1 ;    C20 - H17   
    27     28      1 ;    C21 - CL    
    27     50      1 ;    C21 - H16   
    28     51      1 ;     CL - H17   
    28     52      1 ;     CL - H18   
    29     56      1 ;    C22 - H22   
    29     57      1 ;    C22 - H23   
    31     54      1 ;     O2 - H20   
    31     55      1 ;     O2 - H21   
    31     56      1 ;     O2 - H22   
    31     57      1 ;     O2 - H23   
    32     54      1 ;     O3 - H20   
    32     55      1 ;     O3 - H21   
    32     56      1 ;     O3 - H22   
    32     57      1 ;     O3 - H23   
    33     54      1 ;    C23 - H20   
    33     55      1 ;    C23 - H21   
    34      3      1 ;      H - C1    
    35      3      1 ;     H1 - C1    
    36      3      1 ;     H2 - C1    
    37     38      1 ;     H3 - H4    
    39     40      1 ;     H5 - H6    
    42     44      1 ;     H8 - H10   
    42     45      1 ;     H8 - H11   
    43     44      1 ;     H9 - H10   
    43     45      1 ;     H9 - H11   
    44     46      1 ;    H10 - H12   
    44     47      1 ;    H10 - H13   
    45     46      1 ;    H11 - H12   
    45     47      1 ;    H11 - H13   
    46     48      1 ;    H12 - H14   
    46     49      1 ;    H12 - H15   
    47     48      1 ;    H13 - H14   
    47     49      1 ;    H13 - H15   
    50     51      1 ;    H16 - H17   
    52     53      1 ;    H18 - H19   

[ angles ]
;   ai     aj     ak    funct   theta         cth
     1      2      3      1    1.1839e+02    7.3856e+02 ;      C - O      - C1    
     2      1     34      1    1.1034e+02    4.7028e+02 ;      O - C      - H     
     2      1     35      1    1.1034e+02    4.7028e+02 ;      O - C      - H1    
     2      1     36      1    1.1034e+02    4.7028e+02 ;      O - C      - H2    
     2      3      4      1    1.1911e+02    6.6107e+02 ;      O - C1     - C2    
     2      3      8      1    1.1911e+02    6.6107e+02 ;      O - C1     - C6    
     3      4      5      1    1.2002e+02    5.3279e+02 ;     C1 - C2     - C3    
     3      4     37      1    1.1988e+02    3.7572e+02 ;     C1 - C2     - H3    
     3      8      7      1    1.2002e+02    5.3279e+02 ;     C1 - C6     - C5    
     3      8     40      1    1.1988e+02    3.7572e+02 ;     C1 - C6     - H6    
     4      3      8      1    1.2002e+02    5.3279e+02 ;     C2 - C1     - C6    
     4      5      6      1    1.2002e+02    5.3279e+02 ;     C2 - C3     - C4    
     4      5     38      1    1.1988e+02    3.7572e+02 ;     C2 - C3     - H4    
     5      4     37      1    1.1988e+02    3.7572e+02 ;     C3 - C2     - H3    
     5      6      7      1    1.2002e+02    5.3279e+02 ;     C3 - C4     - C5    
     5      6      9      1    1.2031e+02    5.6752e+02 ;     C3 - C4     - N     
     6      5     38      1    1.1988e+02    3.7572e+02 ;     C4 - C3     - H4    
     6      7      8      1    1.2002e+02    5.3279e+02 ;     C4 - C5     - C6    
     6      7     39      1    1.1988e+02    3.7572e+02 ;     C4 - C5     - H5    
     6      9     10      1    1.1447e+02    7.2977e+02 ;     C4 - N      - N1    
     6      9     13      1    1.1732e+02    6.7354e+02 ;     C4 - N      - C9    
     7      6      9      1    1.2031e+02    5.6752e+02 ;     C5 - C4     - N     
     7      8     40      1    1.1988e+02    3.7572e+02 ;     C5 - C6     - H6    
     8      7     39      1    1.1988e+02    3.7572e+02 ;     C6 - C5     - H5    
     9     10     11      1    1.0383e+02    7.8576e+02 ;      N - N1     - C7    
     9     13     12      1    1.0675e+02    6.0927e+02 ;      N - C9     - C8    
     9     13     14      1    1.2292e+02    6.0116e+02 ;      N - C9     - N2    
    10      9     13      1    1.1457e+02    7.3103e+02 ;     N1 - N      - C9    
    10     11     12      1    1.2070e+02    5.7287e+02 ;     N1 - C7     - C8    
    10     11     33      1    1.2141e+02    5.5187e+02 ;     N1 - C7     - C23   
    11     12     13      1    1.1621e+02    5.4032e+02 ;     C7 - C8     - C9    
    11     12     29      1    1.2871e+02    4.8953e+02 ;     C7 - C8     - C22   
    11     33     30      1    1.1301e+02    5.2886e+02 ;     C7 - C23    - S     
    11     33     56      1    1.0926e+02    3.6869e+02 ;     C7 - C23    - H22   
    11     33     57      1    1.0926e+02    3.6869e+02 ;     C7 - C23    - H23   
    12     11     33      1    1.2871e+02    4.8953e+02 ;     C8 - C7     - C23   
    12     13     14      1    1.2145e+02    5.7120e+02 ;     C8 - C9     - N2    
    12     29     30      1    1.1301e+02    5.2886e+02 ;     C8 - C22    - S     
    12     29     54      1    1.0926e+02    3.6869e+02 ;     C8 - C22    - H20   
    12     29     55      1    1.0926e+02    3.6869e+02 ;     C8 - C22    - H21   
    13     12     29      1    1.1336e+02    5.3003e+02 ;     C9 - C8     - C22   
    13     14     15      1    1.2518e+02    6.5346e+02 ;     C9 - N2     - C10   
    13     14     41      1    1.1891e+02    4.7656e+02 ;     C9 - N2     - H7    
    14     15     16      1    1.2305e+02    7.2977e+02 ;     N2 - C10    - O1    
    14     15     17      1    1.0713e+02    5.7137e+02 ;     N2 - C10    - C11   
    15     14     41      1    1.1726e+02    4.8007e+02 ;    C10 - N2     - H7    
    15     17     18      1    1.0786e+02    5.0995e+02 ;    C10 - C11    - C12   
    15     17     21      1    1.0786e+02    5.0995e+02 ;    C10 - C11    - C15   
    15     17     22      1    1.1101e+02    5.0810e+02 ;    C10 - C11    - C16   
    16     15     17      1    1.2567e+02    6.3019e+02 ;     O1 - C10    - C11   
    17     18     19      1    1.0383e+02    5.1748e+02 ;    C11 - C12    - C13   
    17     18     42      1    1.1117e+02    3.5690e+02 ;    C11 - C12    - H8    
    17     18     43      1    1.1117e+02    3.5690e+02 ;    C11 - C12    - H9    
    17     21     20      1    1.0383e+02    5.1748e+02 ;    C11 - C15    - C14   
    17     21     48      1    1.1117e+02    3.5690e+02 ;    C11 - C15    - H14   
    17     21     49      1    1.1117e+02    3.5690e+02 ;    C11 - C15    - H15   
    17     22     23      1    1.2187e+02    5.0601e+02 ;    C11 - C16    - C17   
    17     22     27      1    1.2187e+02    5.0601e+02 ;    C11 - C16    - C21   
    18     17     21      1    1.0383e+02    5.1748e+02 ;    C12 - C11    - C15   
    18     17     22      1    1.0483e+02    5.2049e+02 ;    C12 - C11    - C16   
    18     19     20      1    1.0383e+02    5.1748e+02 ;    C12 - C13    - C14   
    18     19     44      1    1.1117e+02    3.5690e+02 ;    C12 - C13    - H10   
    18     19     45      1    1.1117e+02    3.5690e+02 ;    C12 - C13    - H11   
    19     18     42      1    1.1117e+02    3.5690e+02 ;    C13 - C12    - H8    
    19     18     43      1    1.1117e+02    3.5690e+02 ;    C13 - C12    - H9    
    19     20     21      1    1.0383e+02    5.1748e+02 ;    C13 - C14    - C15   
    19     20     46      1    1.1117e+02    3.5690e+02 ;    C13 - C14    - H12   
    19     20     47      1    1.1117e+02    3.5690e+02 ;    C13 - C14    - H13   
    20     19     44      1    1.1117e+02    3.5690e+02 ;    C14 - C13    - H10   
    20     19     45      1    1.1117e+02    3.5690e+02 ;    C14 - C13    - H11   
    20     21     48      1    1.1117e+02    3.5690e+02 ;    C14 - C15    - H14   
    20     21     49      1    1.1117e+02    3.5690e+02 ;    C14 - C15    - H15   
    21     17     22      1    1.0483e+02    5.2049e+02 ;    C15 - C11    - C16   
    21     20     46      1    1.1117e+02    3.5690e+02 ;    C15 - C14    - H12   
    21     20     47      1    1.1117e+02    3.5690e+02 ;    C15 - C14    - H13   
    22     23     24      1    1.2002e+02    5.3279e+02 ;    C16 - C17    - C18   
    22     23     50      1    1.1988e+02    3.7572e+02 ;    C16 - C17    - H16   
    22     27     26      1    1.2002e+02    5.3279e+02 ;    C16 - C21    - C20   
    22     27     53      1    1.1988e+02    3.7572e+02 ;    C16 - C21    - H19   
    23     22     27      1    1.2002e+02    5.3279e+02 ;    C17 - C16    - C21   
    23     24     25      1    1.2002e+02    5.3279e+02 ;    C17 - C18    - C19   
    23     24     51      1    1.1988e+02    3.7572e+02 ;    C17 - C18    - H17   
    24     23     50      1    1.1988e+02    3.7572e+02 ;    C18 - C17    - H16   
    24     25     26      1    1.2002e+02    5.3279e+02 ;    C18 - C19    - C20   
    24     25     28      1    1.1938e+02    5.3605e+02 ;    C18 - C19    - CL    
    25     24     51      1    1.1988e+02    3.7572e+02 ;    C19 - C18    - H17   
    25     26     27      1    1.2002e+02    5.3279e+02 ;    C19 - C20    - C21   
    25     26     52      1    1.1988e+02    3.7572e+02 ;    C19 - C20    - H18   
    26     25     28      1    1.1938e+02    5.3605e+02 ;    C20 - C19    - CL    
    26     27     53      1    1.1988e+02    3.7572e+02 ;    C20 - C21    - H19   
    27     26     52      1    1.1988e+02    3.7572e+02 ;    C21 - C20    - H18   
    29     30     31      1    1.1004e+02    9.6751e+02 ;    C22 - S      - O2    
    29     30     32      1    1.1004e+02    9.6751e+02 ;    C22 - S      - O3    
    29     30     33      1    9.5120e+01    7.8149e+02 ;    C22 - S      - C23   
    30     29     54      1    1.0702e+02    3.4869e+02 ;      S - C22    - H20   
    30     29     55      1    1.0702e+02    3.4869e+02 ;      S - C22    - H21   
    30     33     56      1    1.0702e+02    3.4869e+02 ;      S - C23    - H22   
    30     33     57      1    1.0702e+02    3.4869e+02 ;      S - C23    - H23   
    31     30     32      1    1.2021e+02    1.3263e+03 ;     O2 - S      - O3    
    31     30     33      1    1.1004e+02    9.6751e+02 ;     O2 - S      - C23   
    32     30     33      1    1.1004e+02    9.6751e+02 ;     O3 - S      - C23   
    34      1     35      1    1.0855e+02    2.9824e+02 ;      H - C      - H1    
    34      1     36      1    1.0855e+02    2.9824e+02 ;      H - C      - H2    
    35      1     36      1    1.0855e+02    2.9824e+02 ;     H1 - C      - H2    
    42     18     43      1    1.0722e+02    3.0049e+02 ;     H8 - C12    - H9    
    44     19     45      1    1.0722e+02    3.0049e+02 ;    H10 - C13    - H11   
    46     20     47      1    1.0722e+02    3.0049e+02 ;    H12 - C14    - H13   
    48     21     49      1    1.0722e+02    3.0049e+02 ;    H14 - C15    - H15   
    54     29     55      1    1.0813e+02    2.9874e+02 ;    H20 - C22    - H21   
    56     33     57      1    1.0813e+02    2.9874e+02 ;    H22 - C23    - H23   

[ dihedrals ] ; propers
; for gromacs 4.5 or higher, using funct 9
;    i      j      k      l   func   phase     kd      pn
     1      2      3      4      9   180.00   6.94544   2 ;      C-     O-    C1-    C2
     1      2      3      8      9   180.00   6.94544   2 ;      C-     O-    C1-    C6
     2      3      4      5      9   180.00  15.16700   2 ;      O-    C1-    C2-    C3
     2      3      4     37      9   180.00  15.16700   2 ;      O-    C1-    C2-    H3
     2      3      8      7      9   180.00  15.16700   2 ;      O-    C1-    C6-    C5
     2      3      8     40      9   180.00  15.16700   2 ;      O-    C1-    C6-    H6
     3      4      5      6      9   180.00  15.16700   2 ;     C1-    C2-    C3-    C4
     3      4      5     38      9   180.00  15.16700   2 ;     C1-    C2-    C3-    H4
     3      8      7      6      9   180.00  15.16700   2 ;     C1-    C6-    C5-    C4
     3      8      7     39      9   180.00  15.16700   2 ;     C1-    C6-    C5-    H5
     4      3      8      7      9   180.00  15.16700   2 ;     C2-    C1-    C6-    C5
     4      3      8     40      9   180.00  15.16700   2 ;     C2-    C1-    C6-    H6
     4      5      6      7      9   180.00  15.16700   2 ;     C2-    C3-    C4-    C5
     4      5      6      9      9   180.00  15.16700   2 ;     C2-    C3-    C4-     N
     5      4      3      8      9   180.00  15.16700   2 ;     C3-    C2-    C1-    C6
     5      6      7      8      9   180.00  15.16700   2 ;     C3-    C4-    C5-    C6
     5      6      7     39      9   180.00  15.16700   2 ;     C3-    C4-    C5-    H5
     5      6      9     10      9   180.00   1.25520   2 ;     C3-    C4-     N-    N1
     5      6      9     13      9   180.00   2.56479   2 ;     C3-    C4-     N-    C9
     6      5      4     37      9   180.00  15.16700   2 ;     C4-    C3-    C2-    H3
     6      7      8     40      9   180.00  15.16700   2 ;     C4-    C5-    C6-    H6
     6      9     10     11      9   180.00  20.08320   2 ;     C4-     N-    N1-    C7
     6      9     13     12      9   180.00   7.11280   2 ;     C4-     N-    C9-    C8
     6      9     13     14      9   180.00   7.11280   2 ;     C4-     N-    C9-    N2
     7      6      5     38      9   180.00  15.16700   2 ;     C5-    C4-    C3-    H4
     7      6      9     10      9   180.00   1.25520   2 ;     C5-    C4-     N-    N1
     7      6      9     13      9   180.00   2.56479   2 ;     C5-    C4-     N-    C9
     8      3      4     37      9   180.00  15.16700   2 ;     C6-    C1-    C2-    H3
     8      7      6      9      9   180.00  15.16700   2 ;     C6-    C5-    C4-     N
     9      6      5     38      9   180.00  15.16700   2 ;      N-    C4-    C3-    H4
     9      6      7     39      9   180.00  15.16700   2 ;      N-    C4-    C5-    H5
     9     10     11     12      9   180.00  19.87400   2 ;      N-    N1-    C7-    C8
     9     10     11     33      9   180.00  19.87400   2 ;      N-    N1-    C7-   C23
     9     13     12     11      9   180.00  16.73600   2 ;      N-    C9-    C8-    C7
     9     13     12     29      9   180.00  16.73600   2 ;      N-    C9-    C8-   C22
     9     13     14     15      9   180.00   6.90360   2 ;      N-    C9-    N2-   C10
     9     13     14     41      9   180.00   6.90360   2 ;      N-    C9-    N2-    H7
    10      9     13     12      9   180.00   7.11280   2 ;     N1-     N-    C9-    C8
    10      9     13     14      9   180.00   7.11280   2 ;     N1-     N-    C9-    N2
    10     11     12     13      9   180.00  16.73600   2 ;     N1-    C7-    C8-    C9
    10     11     12     29      9   180.00  16.73600   2 ;     N1-    C7-    C8-   C22
    10     11     33     30      9     0.00   0.00000   0 ;     N1-    C7-   C23-     S
    10     11     33     56      9     0.00   0.00000   0 ;     N1-    C7-   C23-   H22
    10     11     33     57      9     0.00   0.00000   0 ;     N1-    C7-   C23-   H23
    11     10      9     13      9   180.00  20.08320   2 ;     C7-    N1-     N-    C9
    11     12     13     14      9   180.00  16.73600   2 ;     C7-    C8-    C9-    N2
    11     12     29     30      9     0.00   0.00000   0 ;     C7-    C8-   C22-     S
    11     12     29     54      9     0.00   0.00000   0 ;     C7-    C8-   C22-   H20
    11     12     29     55      9     0.00   0.00000   0 ;     C7-    C8-   C22-   H21
    11     33     30     29      9     0.00   0.60436   3 ;     C7-   C23-     S-   C22
    11     33     30     31      9     0.00   0.60436   3 ;     C7-   C23-     S-    O2
    11     33     30     32      9     0.00   0.60436   3 ;     C7-   C23-     S-    O3
    12     11     33     30      9     0.00   0.00000   0 ;     C8-    C7-   C23-     S
    12     11     33     56      9     0.00   0.00000   0 ;     C8-    C7-   C23-   H22
    12     11     33     57      9     0.00   0.00000   0 ;     C8-    C7-   C23-   H23
    12     13     14     15      9   180.00   6.90360   2 ;     C8-    C9-    N2-   C10
    12     13     14     41      9   180.00   6.90360   2 ;     C8-    C9-    N2-    H7
    12     29     30     31      9     0.00   0.60436   3 ;     C8-   C22-     S-    O2
    12     29     30     32      9     0.00   0.60436   3 ;     C8-   C22-     S-    O3
    12     29     30     33      9     0.00   0.60436   3 ;     C8-   C22-     S-   C23
    13     12     11     33      9   180.00  16.73600   2 ;     C9-    C8-    C7-   C23
    13     12     29     30      9     0.00   0.00000   0 ;     C9-    C8-   C22-     S
    13     12     29     54      9     0.00   0.00000   0 ;     C9-    C8-   C22-   H20
    13     12     29     55      9     0.00   0.00000   0 ;     C9-    C8-   C22-   H21
    13     14     15     16      9   180.00  10.46000   2 ;     C9-    N2-   C10-    O1
    13     14     15     17      9   180.00   0.87864   2 ;     C9-    N2-   C10-   C11
    14     13     12     29      9   180.00  16.73600   2 ;     N2-    C9-    C8-   C22
    14     15     17     18      9   180.00   4.39320   3 ;     N2-   C10-   C11-   C12
    14     15     17     21      9   180.00   4.39320   3 ;     N2-   C10-   C11-   C15
    14     15     17     22      9   180.00   0.00000   2 ;     N2-   C10-   C11-   C16
    15     17     18     19      9     0.00   0.00000   0 ;    C10-   C11-   C12-   C13
    15     17     18     19      9     0.00   0.16736   2 ;    C10-   C11-   C12-   C13
    15     17     18     19      9   180.00   1.92464   1 ;    C10-   C11-   C12-   C13
    15     17     18     42      9     0.00   0.65084   3 ;    C10-   C11-   C12-    H8
    15     17     18     43      9     0.00   0.65084   3 ;    C10-   C11-   C12-    H9
    15     17     21     20      9     0.00   0.00000   0 ;    C10-   C11-   C15-   C14
    15     17     21     20      9     0.00   0.16736   2 ;    C10-   C11-   C15-   C14
    15     17     21     20      9   180.00   1.92464   1 ;    C10-   C11-   C15-   C14
    15     17     21     48      9     0.00   0.65084   3 ;    C10-   C11-   C15-   H14
    15     17     21     49      9     0.00   0.65084   3 ;    C10-   C11-   C15-   H15
    15     17     22     23      9     0.00   0.00000   0 ;    C10-   C11-   C16-   C17
    15     17     22     27      9     0.00   0.00000   0 ;    C10-   C11-   C16-   C21
    16     15     14     41      9     0.00   8.36800   1 ;     O1-   C10-    N2-    H7
    16     15     14     41      9   180.00  10.46000   2 ;     O1-   C10-    N2-    H7
    16     15     17     18      9     0.00   2.84512   1 ;     O1-   C10-   C11-   C12
    16     15     17     18      9   180.00   0.83680   2 ;     O1-   C10-   C11-   C12
    16     15     17     18      9   180.00   1.84096   3 ;     O1-   C10-   C11-   C12
    16     15     17     21      9     0.00   2.84512   1 ;     O1-   C10-   C11-   C15
    16     15     17     21      9   180.00   0.83680   2 ;     O1-   C10-   C11-   C15
    16     15     17     21      9   180.00   1.84096   3 ;     O1-   C10-   C11-   C15
    16     15     17     22      9   180.00   0.00000   2 ;     O1-   C10-   C11-   C16
    17     15     14     41      9   180.00  10.46000   2 ;    C11-   C10-    N2-    H7
    17     18     19     20      9     0.00   2.17568   3 ;    C11-   C12-   C13-   C14
    17     18     19     44      9     0.00   0.54392   3 ;    C11-   C12-   C13-   H10
    17     18     19     45      9     0.00   0.54392   3 ;    C11-   C12-   C13-   H11
    17     21     20     19      9     0.00   2.17568   3 ;    C11-   C15-   C14-   C13
    17     21     20     46      9     0.00   0.54392   3 ;    C11-   C15-   C14-   H12
    17     21     20     47      9     0.00   0.54392   3 ;    C11-   C15-   C14-   H13
    17     22     23     24      9   180.00  15.16700   2 ;    C11-   C16-   C17-   C18
    17     22     23     50      9   180.00  15.16700   2 ;    C11-   C16-   C17-   H16
    17     22     27     26      9   180.00  15.16700   2 ;    C11-   C16-   C21-   C20
    17     22     27     53      9   180.00  15.16700   2 ;    C11-   C16-   C21-   H19
    18     17     21     20      9     0.00   2.17568   3 ;    C12-   C11-   C15-   C14
    18     17     21     48      9     0.00   0.54392   3 ;    C12-   C11-   C15-   H14
    18     17     21     49      9     0.00   0.54392   3 ;    C12-   C11-   C15-   H15
    18     17     22     23      9   180.00   1.00416   2 ;    C12-   C11-   C16-   C17
    18     17     22     27      9   180.00   1.00416   2 ;    C12-   C11-   C16-   C21
    18     19     20     21      9     0.00   2.17568   3 ;    C12-   C13-   C14-   C15
    18     19     20     46      9     0.00   0.54392   3 ;    C12-   C13-   C14-   H12
    18     19     20     47      9     0.00   0.54392   3 ;    C12-   C13-   C14-   H13
    19     18     17     21      9     0.00   2.17568   3 ;    C13-   C12-   C11-   C15
    19     18     17     22      9     0.00   0.65084   3 ;    C13-   C12-   C11-   C16
    19     20     21     48      9     0.00   0.54392   3 ;    C13-   C14-   C15-   H14
    19     20     21     49      9     0.00   0.54392   3 ;    C13-   C14-   C15-   H15
    20     19     18     42      9     0.00   0.54392   3 ;    C14-   C13-   C12-    H8
    20     19     18     43      9     0.00   0.54392   3 ;    C14-   C13-   C12-    H9
    20     21     17     22      9     0.00   0.65084   3 ;    C14-   C15-   C11-   C16
    21     17     18     42      9     0.00   0.54392   3 ;    C15-   C11-   C12-    H8
    21     17     18     43      9     0.00   0.54392   3 ;    C15-   C11-   C12-    H9
    21     17     22     23      9   180.00   1.00416   2 ;    C15-   C11-   C16-   C17
    21     17     22     27      9   180.00   1.00416   2 ;    C15-   C11-   C16-   C21
    21     20     19     44      9     0.00   0.54392   3 ;    C15-   C14-   C13-   H10
    21     20     19     45      9     0.00   0.54392   3 ;    C15-   C14-   C13-   H11
    22     17     18     42      9     0.00   0.65084   3 ;    C16-   C11-   C12-    H8
    22     17     18     43      9     0.00   0.65084   3 ;    C16-   C11-   C12-    H9
    22     17     21     48      9     0.00   0.65084   3 ;    C16-   C11-   C15-   H14
    22     17     21     49      9     0.00   0.65084   3 ;    C16-   C11-   C15-   H15
    22     23     24     25      9   180.00  15.16700   2 ;    C16-   C17-   C18-   C19
    22     23     24     51      9   180.00  15.16700   2 ;    C16-   C17-   C18-   H17
    22     27     26     25      9   180.00  15.16700   2 ;    C16-   C21-   C20-   C19
    22     27     26     52      9   180.00  15.16700   2 ;    C16-   C21-   C20-   H18
    23     22     27     26      9   180.00  15.16700   2 ;    C17-   C16-   C21-   C20
    23     22     27     53      9   180.00  15.16700   2 ;    C17-   C16-   C21-   H19
    23     24     25     26      9   180.00  15.16700   2 ;    C17-   C18-   C19-   C20
    23     24     25     28      9   180.00  15.16700   2 ;    C17-   C18-   C19-    CL
    24     23     22     27      9   180.00  15.16700   2 ;    C18-   C17-   C16-   C21
    24     25     26     27      9   180.00  15.16700   2 ;    C18-   C19-   C20-   C21
    24     25     26     52      9   180.00  15.16700   2 ;    C18-   C19-   C20-   H18
    25     24     23     50      9   180.00  15.16700   2 ;    C19-   C18-   C17-   H16
    25     26     27     53      9   180.00  15.16700   2 ;    C19-   C20-   C21-   H19
    26     25     24     51      9   180.00  15.16700   2 ;    C20-   C19-   C18-   H17
    27     22     23     50      9   180.00  15.16700   2 ;    C21-   C16-   C17-   H16
    27     26     25     28      9   180.00  15.16700   2 ;    C21-   C20-   C19-    CL
    28     25     24     51      9   180.00  15.16700   2 ;     CL-   C19-   C18-   H17
    28     25     26     52      9   180.00  15.16700   2 ;     CL-   C19-   C20-   H18
    29     12     11     33      9   180.00  16.73600   2 ;    C22-    C8-    C7-   C23
    29     30     33     56      9   180.00   0.00000   3 ;    C22-     S-   C23-   H22
    29     30     33     57      9   180.00   0.00000   3 ;    C22-     S-   C23-   H23
    31     30     29     54      9     0.00   0.60436   3 ;     O2-     S-   C22-   H20
    31     30     29     55      9     0.00   0.60436   3 ;     O2-     S-   C22-   H21
    31     30     33     56      9     0.00   0.60436   3 ;     O2-     S-   C23-   H22
    31     30     33     57      9     0.00   0.60436   3 ;     O2-     S-   C23-   H23
    32     30     29     54      9     0.00   0.60436   3 ;     O3-     S-   C22-   H20
    32     30     29     55      9     0.00   0.60436   3 ;     O3-     S-   C22-   H21
    32     30     33     56      9     0.00   0.60436   3 ;     O3-     S-   C23-   H22
    32     30     33     57      9     0.00   0.60436   3 ;     O3-     S-   C23-   H23
    33     30     29     54      9   180.00   0.00000   3 ;    C23-     S-   C22-   H20
    33     30     29     55      9   180.00   0.00000   3 ;    C23-     S-   C22-   H21
    34      1      2      3      9     0.00   1.60387   3 ;      H-     C-     O-    C1
    35      1      2      3      9     0.00   1.60387   3 ;     H1-     C-     O-    C1
    36      1      2      3      9     0.00   1.60387   3 ;     H2-     C-     O-    C1
    37      4      5     38      9   180.00  15.16700   2 ;     H3-    C2-    C3-    H4
    39      7      8     40      9   180.00  15.16700   2 ;     H5-    C5-    C6-    H6
    42     18     19     44      9     0.00   0.50208   3 ;     H8-   C12-   C13-   H10
    42     18     19     45      9     0.00   0.50208   3 ;     H8-   C12-   C13-   H11
    43     18     19     44      9     0.00   0.50208   3 ;     H9-   C12-   C13-   H10
    43     18     19     45      9     0.00   0.50208   3 ;     H9-   C12-   C13-   H11
    44     19     20     46      9     0.00   0.50208   3 ;    H10-   C13-   C14-   H12
    44     19     20     47      9     0.00   0.50208   3 ;    H10-   C13-   C14-   H13
    45     19     20     46      9     0.00   0.50208   3 ;    H11-   C13-   C14-   H12
    45     19     20     47      9     0.00   0.50208   3 ;    H11-   C13-   C14-   H13
    46     20     21     48      9     0.00   0.50208   3 ;    H12-   C14-   C15-   H14
    46     20     21     49      9     0.00   0.50208   3 ;    H12-   C14-   C15-   H15
    47     20     21     48      9     0.00   0.50208   3 ;    H13-   C14-   C15-   H14
    47     20     21     49      9     0.00   0.50208   3 ;    H13-   C14-   C15-   H15
    50     23     24     51      9   180.00  15.16700   2 ;    H16-   C17-   C18-   H17
    52     26     27     53      9   180.00  15.16700   2 ;    H18-   C20-   C21-   H19

[ dihedrals ] ; impropers
; treated as propers in GROMACS to use correct AMBER analytical function
;    i      j      k      l   func   phase     kd      pn
     3      5      4     37      4   180.00   4.60240   2 ;     C1-    C3-    C2-    H3
     3      7      8     40      4   180.00   4.60240   2 ;     C1-    C5-    C6-    H6
     4      6      5     38      4   180.00   4.60240   2 ;     C2-    C4-    C3-    H4
     4      8      3      2      4   180.00   4.60240   2 ;     C2-    C6-    C1-     O
     5      7      6      9      4   180.00   4.60240   2 ;     C3-    C5-    C4-     N
     6      8      7     39      4   180.00   4.60240   2 ;     C4-    C6-    C5-    H5
     6     13      9     10      4   180.00   4.60240   2 ;     C4-    C9-     N-    N1
    12      9     13     14      4   180.00   4.60240   2 ;     C8-     N-    C9-    N2
    15     13     14     41      4   180.00   4.60240   2 ;    C10-    C9-    N2-    H7
    17     14     15     16      4   180.00  43.93200   2 ;    C11-    N2-   C10-    O1
    17     23     22     27      4   180.00   4.60240   2 ;    C11-   C17-   C16-   C21
    22     24     23     50      4   180.00   4.60240   2 ;    C16-   C18-   C17-   H16
    22     26     27     53      4   180.00   4.60240   2 ;    C16-   C20-   C21-   H19
    23     25     24     51      4   180.00   4.60240   2 ;    C17-   C19-   C18-   H17
    24     26     25     28      4   180.00   4.60240   2 ;    C18-   C20-   C19-    CL
    25     27     26     52      4   180.00   4.60240   2 ;    C19-   C21-   C20-   H18
    29     13     12     11      4   180.00   4.60240   2 ;    C22-    C9-    C8-    C7
    33     12     11     10      4   180.00   4.60240   2 ;    C23-    C8-    C7-    N1
